Title: * GA CMOS Amp | W=1.3309140258146537e-05 L=9.799278903943623e-07 Vbias=0.5937090617293499
Date: Mon Sep  8 21:04:35 2025
Plotname: Operating Point
Flags: real nocompression
No. Variables: 1
No. Points:            1
Offset:    0.0000000000000000e+00
Command: Linear Technology Corporation LTspice
Variables:
	0	V(out)	voltage
Values:
0		1.799418150204469e+00
