Title: * GA CMOS Amp | W=1.8666955056680754e-05 L=5.164443189255136e-07 Vbias=0.8731870503617047
Date: Mon Sep  8 18:47:27 2025
Plotname: AC Analysis
Flags: complex forward log
No. Variables: 11
No. Points:          901
Offset:    0.0000000000000000e+00
Command: Linear Technology Corporation LTspice
Variables:
	0	frequency	frequency
	1	V(out)	voltage
	2	V(g)	voltage
	3	V(vdd)	voltage
	4	Id(M1)	device_current
	5	Ig(M1)	device_current
	6	Ib(M1)	device_current
	7	Is(M1)	device_current
	8	I(Rload)	device_current
	9	I(Vg)	device_current
	10	I(Vdd)	device_current
Values:
0		1.000000000000000e+00,0.000000000000000e+00
	-5.427815546983195e+00,1.635420765097466e-09
	1.000000000000000e+00,0.000000000000000e+00
	0.000000000000000e+00,0.000000000000000e+00
	5.427815546983194e-04,-1.635420765097466e-13
	5.721114905799924e-23,2.911787079457499e-13
	5.427815423682258e-12,4.291305054456506e-15
	-5.427815601261348e-04,-1.319279364904598e-13
	-5.427815546983195e-04,1.635420765097466e-13
	-5.721114905799924e-23,-2.911787079457499e-13
	-5.427815546983195e-04,1.635420765097466e-13
1		1.023292992280754e+00,0.000000000000000e+00
	-5.427815546983195e+00,1.673514608354666e-09
	1.000000000000000e+00,0.000000000000000e+00
	0.000000000000000e+00,0.000000000000000e+00
	5.427815546983194e-04,-1.673514608354666e-13
	5.990742744542634e-23,2.979611313422502e-13
	5.427815423682258e-12,4.391262389964295e-15
	-5.427815601261348e-04,-1.350009328967479e-13
	-5.427815546983195e-04,1.673514608354667e-13
	-5.990742744542634e-23,-2.979611313422502e-13
	-5.427815546983195e-04,1.673514608354667e-13
2		1.047128548050899e+00,0.000000000000000e+00
	-5.427815546983195e+00,1.712495771208800e-09
	1.000000000000000e+00,0.000000000000000e+00
	0.000000000000000e+00,0.000000000000000e+00
	5.427815546983194e-04,-1.712495771208801e-13
	6.273077751839386e-23,3.049015376745700e-13
	5.427815423682258e-12,4.493548030916538e-15
	-5.427815601261348e-04,-1.381455085846064e-13
	-5.427815546983195e-04,1.712495771208800e-13
	-6.273077751839386e-23,-3.049015376745700e-13
	-5.427815546983195e-04,1.712495771208800e-13
3		1.071519305237606e+00,0.000000000000000e+00
	-5.427815546983195e+00,1.752384921988391e-09
	1.000000000000000e+00,0.000000000000000e+00
	0.000000000000000e+00,0.000000000000000e+00
	5.427815546983194e-04,-1.752384921988391e-13
	6.568718798093978e-23,3.120036068380138e-13
	5.427815423682258e-12,4.598216210513799e-15
	-5.427815601261348e-04,-1.413633308496885e-13
	-5.427815546983195e-04,1.752384921988391e-13
	-6.568718798093978e-23,-3.120036068380138e-13
	-5.427815546983195e-04,1.752384921988391e-13
4		1.096478196143185e+00,0.000000000000000e+00
	-5.427815546983195e+00,1.793203210449176e-09
	1.000000000000000e+00,0.000000000000000e+00
	0.000000000000000e+00,0.000000000000000e+00
	5.427815546983194e-04,-1.793203210449176e-13
	6.878292977602793e-23,3.192711044436590e-13
	5.427815423682258e-12,4.705322425210552e-15
	-5.427815601261348e-04,-1.446561058239519e-13
	-5.427815546983195e-04,1.793203210449176e-13
	-6.878292977602793e-23,-3.192711044436590e-13
	-5.427815546983195e-04,1.793203210449176e-13
5		1.122018454301963e+00,0.000000000000000e+00
	-5.427815546983195e+00,1.834972278987993e-09
	1.000000000000000e+00,0.000000000000000e+00
	0.000000000000000e+00,0.000000000000000e+00
	5.427815546983194e-04,-1.834972278987993e-13
	7.202456938705915e-23,3.267078838149331e-13
	5.427815423682258e-12,4.814923464139413e-15
	-5.427815601261348e-04,-1.480255793802732e-13
	-5.427815546983195e-04,1.834972278987993e-13
	-7.202456938705915e-23,-3.267078838149331e-13
	-5.427815546983195e-04,1.834972278987993e-13
6		1.148153621496882e+00,0.000000000000000e+00
	-5.427815546983195e+00,1.877714274117858e-09
	1.000000000000000e+00,0.000000000000000e+00
	0.000000000000000e+00,0.000000000000000e+00
	5.427815546983194e-04,-1.877714274117858e-13
	7.541898276626249e-23,3.343178880306959e-13
	5.427815423682258e-12,4.927077439222000e-15
	-5.427815601261348e-04,-1.514735380581321e-13
	-5.427815546983195e-04,1.877714274117858e-13
	-7.541898276626249e-23,-3.343178880306959e-13
	-5.427815546983195e-04,1.877714274117858e-13
7		1.174897554939529e+00,0.000000000000000e+00
	-5.427815546983195e+00,1.921451858210347e-09
	1.000000000000000e+00,0.000000000000000e+00
	0.000000000000000e+00,0.000000000000000e+00
	5.427815546983194e-04,-1.921451858210347e-13
	7.897336991951225e-23,3.421051520159128e-13
	5.427815423682258e-12,5.041843815980504e-15
	-5.427815601261348e-04,-1.550018100108587e-13
	-5.427815546983195e-04,1.921451858210347e-13
	-7.897336991951225e-23,-3.421051520159128e-13
	-5.427815546983195e-04,1.921451858210347e-13
8		1.202264434617413e+00,0.000000000000000e+00
	-5.427815546983195e+00,1.966208221511481e-09
	1.000000000000000e+00,0.000000000000000e+00
	0.000000000000000e+00,0.000000000000000e+00
	5.427815546983194e-04,-1.966208221511481e-13
	8.269527017850546e-23,3.500738046810257e-13
	5.427815423682258e-12,5.159283445066951e-15
	-5.427815601261348e-04,-1.586122659749446e-13
	-5.427815546983195e-04,1.966208221511481e-13
	-8.269527017850546e-23,-3.500738046810257e-13
	-5.427815546983195e-04,1.966208221511481e-13
9		1.230268770812381e+00,0.000000000000000e+00
	-5.427815546983195e+00,2.012007094437503e-09
	1.000000000000000e+00,0.000000000000000e+00
	0.000000000000000e+00,0.000000000000000e+00
	5.427815546983194e-04,-2.012007094437503e-13
	8.659257819269525e-23,3.582280711111550e-13
	5.427815423682258e-12,5.279458594527117e-15
	-5.427815601261348e-04,-1.623068202619318e-13
	-5.427815546983195e-04,2.012007094437503e-13
	-8.659257819269525e-23,-3.582280711111550e-13
	-5.427815546983195e-04,2.012007094437503e-13
10		1.258925411794167e+00,0.000000000000000e+00
	-5.427815546983195e+00,2.058872760157058e-09
	1.000000000000000e+00,0.000000000000000e+00
	0.000000000000000e+00,0.000000000000000e+00
	5.427815546983194e-04,-2.058872760157059e-13
	9.067356067490097e-23,3.665722748062967e-13
	5.427815423682258e-12,5.402432982815900e-15
	-5.427815601261348e-04,-1.660874317734067e-13
	-5.427815546983195e-04,2.058872760157058e-13
	-9.067356067490097e-23,-3.665722748062967e-13
	-5.427815546983195e-04,2.058872760157058e-13
11		1.288249551693134e+00,0.000000000000000e+00
	-5.427815546983195e+00,2.106830067466452e-09
	1.000000000000000e+00,0.000000000000000e+00
	0.000000000000000e+00,0.000000000000000e+00
	5.427815546983194e-04,-2.106830067466453e-13
	9.494687393611423e-23,3.751108399736982e-13
	5.427815423682258e-12,5.528271812582033e-15
	-5.427815601261348e-04,-1.699561050396350e-13
	-5.427815546983195e-04,2.106830067466453e-13
	-9.494687393611423e-23,-3.751108399736982e-13
	-5.427815546983195e-04,2.106830067466453e-13
12		1.318256738556407e+00,0.000000000000000e+00
	-5.427815546983195e+00,2.155904443964809e-09
	1.000000000000000e+00,0.000000000000000e+00
	0.000000000000000e+00,0.000000000000000e+00
	5.427815546983194e-04,-2.155904443964809e-13
	9.942158224669510e-23,3.838482938736328e-13
	5.427815423682258e-12,5.657041805238460e-15
	-5.427815601261348e-04,-1.739148912823903e-13
	-5.427815546983195e-04,2.155904443964809e-13
	-9.942158224669510e-23,-3.838482938736328e-13
	-5.427815546983195e-04,2.155904443964809e-13
13		1.348962882591653e+00,0.000000000000000e+00
	-5.427815546983195e+00,2.206121909536125e-09
	1.000000000000000e+00,0.000000000000000e+00
	0.000000000000000e+00,0.000000000000000e+00
	5.427815546983194e-04,-2.206121909536125e-13
	1.041071770629049e-22,3.927892692198119e-13
	5.427815423682258e-12,5.788811236339760e-15
	-5.427815601261348e-04,-1.779658895025392e-13
	-5.427815546983195e-04,2.206121909536125e-13
	-1.041071770629049e-22,-3.927892692198119e-13
	-5.427815546983195e-04,2.206121909536125e-13
14		1.380384264602885e+00,0.000000000000000e+00
	-5.427815546983195e+00,2.257509090145352e-09
	1.000000000000000e+00,0.000000000000000e+00
	0.000000000000000e+00,0.000000000000000e+00
	5.427815546983194e-04,-2.257509090145352e-13
	1.090135971595575e-22,4.019385066357121e-13
	5.427815423682258e-12,5.923649971782534e-15
	-5.427815601261348e-04,-1.821112475929594e-13
	-5.427815546983195e-04,2.257509090145353e-13
	-1.090135971595575e-22,-4.019385066357121e-13
	-5.427815546983195e-04,2.257509090145353e-13
15		1.412537544622754e+00,0.000000000000000e+00
	-5.427815546983195e+00,2.310093231955840e-09
	1.000000000000000e+00,0.000000000000000e+00
	0.000000000000000e+00,0.000000000000000e+00
	5.427815546983194e-04,-2.310093231955840e-13
	1.141512497114932e-22,4.113008571681156e-13
	5.427815423682258e-12,6.061629504849148e-15
	-5.427815601261348e-04,-1.863531634773807e-13
	-5.427815546983195e-04,2.310093231955841e-13
	-1.141512497114932e-22,-4.113008571681156e-13
	-5.427815546983195e-04,2.310093231955841e-13
16		1.445439770745927e+00,0.000000000000000e+00
	-5.427815546983195e+00,2.363902215775610e-09
	1.000000000000000e+00,0.000000000000000e+00
	0.000000000000000e+00,0.000000000000000e+00
	5.427815546983194e-04,-2.363902215775610e-13
	1.195310323685915e-22,4.208812848592000e-13
	5.427815423682258e-12,6.202822994114357e-15
	-5.427815601261348e-04,-1.906938862757534e-13
	-5.427815546983195e-04,2.363902215775610e-13
	-1.195310323685915e-22,-4.208812848592000e-13
	-5.427815546983195e-04,2.363902215775610e-13
17		1.479108388168207e+00,0.000000000000000e+00
	-5.427815546983195e+00,2.418964571840128e-09
	1.000000000000000e+00,0.000000000000000e+00
	0.000000000000000e+00,0.000000000000000e+00
	5.427815546983194e-04,-2.418964571840128e-13
	1.251643563711482e-22,4.306848693785391e-13
	5.427815423682258e-12,6.347305302235122e-15
	-5.427815601261348e-04,-1.951357174967615e-13
	-5.427815546983195e-04,2.418964571840128e-13
	-1.251643563711482e-22,-4.306848693785391e-13
	-5.427815546983195e-04,2.418964571840128e-13
18		1.513561248436208e+00,0.000000000000000e+00
	-5.427815546983195e+00,2.475309494939418e-09
	1.000000000000000e+00,0.000000000000000e+00
	0.000000000000000e+00,0.000000000000000e+00
	5.427815546983194e-04,-2.475309494939419e-13
	1.310631707546458e-22,4.407168087164111e-13
	5.427815423682258e-12,6.495153035643745e-15
	-5.427815601261348e-04,-1.996810122581130e-13
	-5.427815546983195e-04,2.475309494939418e-13
	-1.310631707546458e-22,-4.407168087164111e-13
	-5.427815546983195e-04,2.475309494939418e-13
19		1.548816618912481e+00,0.000000000000000e+00
	-5.427815546983195e+00,2.532966859897520e-09
	1.000000000000000e+00,0.000000000000000e+00
	0.000000000000000e+00,0.000000000000000e+00
	5.427815546983194e-04,-2.532966859897519e-13
	1.372399876952594e-22,4.509824219398410e-13
	5.427815423682258e-12,6.646444585165292e-15
	-5.427815601261348e-04,-2.043321805352544e-13
	-5.427815546983195e-04,2.532966859897520e-13
	-1.372399876952594e-22,-4.509824219398410e-13
	-5.427815546983195e-04,2.532966859897520e-13
20		1.584893192461113e+00,0.000000000000000e+00
	-5.427815546983195e+00,2.591967237412518e-09
	1.000000000000000e+00,0.000000000000000e+00
	0.000000000000000e+00,0.000000000000000e+00
	5.427815546983194e-04,-2.591967237412519e-13
	1.437079090498603e-22,4.614871520128416e-13
	5.427815423682258e-12,6.801260167582008e-15
	-5.427815601261348e-04,-2.090916884391717e-13
	-5.427815546983195e-04,2.591967237412519e-13
	-1.437079090498603e-22,-4.614871520128416e-13
	-5.427815546983195e-04,2.591967237412519e-13
21		1.621810097358929e+00,0.000000000000000e+00
	-5.427815546983195e+00,2.652341910265536e-09
	1.000000000000000e+00,0.000000000000000e+00
	0.000000000000000e+00,0.000000000000000e+00
	5.427815546983194e-04,-2.652341910265536e-13
	1.504806541468109e-22,4.722365686823438e-13
	5.427815423682258e-12,6.959681868165007e-15
	-5.427815601261348e-04,-2.139620595239552e-13
	-5.427815546983195e-04,2.652341910265536e-13
	-1.504806541468109e-22,-4.722365686823438e-13
	-5.427815546983195e-04,2.652341910265536e-13
22		1.659586907437560e+00,0.000000000000000e+00
	-5.427815546983195e+00,2.714122889907272e-09
	1.000000000000000e+00,0.000000000000000e+00
	0.000000000000000e+00,0.000000000000000e+00
	5.427815546983194e-04,-2.714122889907271e-13
	1.575725888864997e-22,4.832363714313516e-13
	5.427815423682258e-12,7.121793684196530e-15
	-5.427815601261348e-04,-2.189458761248210e-13
	-5.427815546983195e-04,2.714122889907272e-13
	-1.575725888864997e-22,-4.832363714313516e-13
	-5.427815546983195e-04,2.714122889907272e-13
23		1.698243652461743e+00,0.000000000000000e+00
	-5.427815546983195e+00,2.777342933430900e-09
	1.000000000000000e+00,0.000000000000000e+00
	0.000000000000000e+00,0.000000000000000e+00
	5.427815546983194e-04,-2.777342933430900e-13
	1.649987562133417e-22,4.944923925008816e-13
	5.427815423682258e-12,7.287681569507737e-15
	-5.427815601261348e-04,-2.240457807272993e-13
	-5.427815546983195e-04,2.777342933430900e-13
	-1.649987562133417e-22,-4.944923925008816e-13
	-5.427815546983195e-04,2.777342933430900e-13
24		1.737800828749374e+00,0.000000000000000e+00
	-5.427815546983195e+00,2.842035560940312e-09
	1.000000000000000e+00,0.000000000000000e+00
	0.000000000000000e+00,0.000000000000000e+00
	5.427815546983194e-04,-2.842035560940312e-13
	1.727749080238808e-22,5.060105999822962e-13
	5.427815423682258e-12,7.457433480050741e-15
	-5.427815601261348e-04,-2.292644773683158e-13
	-5.427815546983195e-04,2.842035560940312e-13
	-1.727749080238808e-22,-5.060105999822962e-13
	-5.427815546983195e-04,2.842035560940312e-13
25		1.778279410038922e+00,0.000000000000000e+00
	-5.427815546983195e+00,2.908235073322924e-09
	1.000000000000000e+00,0.000000000000000e+00
	0.000000000000000e+00,0.000000000000000e+00
	5.427815546983194e-04,-2.908235073322924e-13
	1.809175385786740e-22,5.177971009816636e-13
	5.427815423682258e-12,7.631139420535960e-15
	-5.427815601261348e-04,-2.346047330699071e-13
	-5.427815546983195e-04,2.908235073322924e-13
	-1.809175385786740e-22,-5.177971009816636e-13
	-5.427815546983195e-04,2.908235073322924e-13
26		1.819700858609982e+00,0.000000000000000e+00
	-5.427815546983195e+00,2.975976570436452e-09
	1.000000000000000e+00,0.000000000000000e+00
	0.000000000000000e+00,0.000000000000000e+00
	5.427815546983194e-04,-2.975976570436453e-13
	1.894439194888294e-22,5.298581448578262e-13
	5.427815423682258e-12,7.808891492151914e-15
	-5.427815601261348e-04,-2.400693793063328e-13
	-5.427815546983195e-04,2.975976570436452e-13
	-1.894439194888294e-22,-5.298581448578262e-13
	-5.427815546983195e-04,2.975976570436452e-13
27		1.862087136662866e+00,0.000000000000000e+00
	-5.427815546983195e+00,3.045295969719334e-09
	1.000000000000000e+00,0.000000000000000e+00
	0.000000000000000e+00,0.000000000000000e+00
	5.427815546983194e-04,-3.045295969719334e-13
	1.983721363514095e-22,5.422001265358944e-13
	5.427815423682258e-12,7.990783941399685e-15
	-5.427815601261348e-04,-2.456613135053607e-13
	-5.427815546983195e-04,3.045295969719334e-13
	-1.983721363514095e-22,-5.422001265358944e-13
	-5.427815546983195e-04,3.045295969719334e-13
28		1.905460717963246e+00,0.000000000000000e+00
	-5.427815546983195e+00,3.116230025234618e-09
	1.000000000000000e+00,0.000000000000000e+00
	0.000000000000000e+00,0.000000000000000e+00
	5.427815546983194e-04,-3.116230025234618e-13
	2.077211271114064e-22,5.548295898979188e-13
	5.427815423682258e-12,8.176913210063981e-15
	-5.427815601261348e-04,-2.513835005845209e-13
	-5.427815546983195e-04,3.116230025234618e-13
	-2.077211271114064e-22,-5.548295898979188e-13
	-5.427815546983195e-04,3.116230025234618e-13
29		1.949844599758044e+00,0.000000000000000e+00
	-5.427815546983195e+00,3.188816347157463e-09
	1.000000000000000e+00,0.000000000000000e+00
	0.000000000000000e+00,0.000000000000000e+00
	5.427815546983194e-04,-3.188816347157463e-13
	2.175107222316635e-22,5.677532312525451e-13
	5.427815423682258e-12,8.367377986346419e-15
	-5.427815601261348e-04,-2.572389745231452e-13
	-5.427815546983195e-04,3.188816347157463e-13
	-2.175107222316635e-22,-5.677532312525451e-13
	-5.427815546983195e-04,3.188816347157463e-13
30		1.995262314968878e+00,0.000000000000000e+00
	-5.427815546983195e+00,3.263093421716543e-09
	1.000000000000000e+00,0.000000000000000e+00
	0.000000000000000e+00,0.000000000000000e+00
	5.427815546983194e-04,-3.263093421716543e-13
	2.277616867559442e-22,5.809779028854838e-13
	5.427815423682258e-12,8.562279257192425e-15
	-5.427815601261348e-04,-2.632308399710219e-13
	-5.427815546983195e-04,3.263093421716543e-13
	-2.277616867559442e-22,-5.809779028854838e-13
	-5.427815546983195e-04,3.263093421716543e-13
31		2.041737944669527e+00,0.000000000000000e+00
	-5.427815546983195e+00,3.339100631599966e-09
	1.000000000000000e+00,0.000000000000000e+00
	0.000000000000000e+00,0.000000000000000e+00
	5.427815546983194e-04,-3.339100631599966e-13
	2.384957643543755e-22,5.945106166926839e-13
	5.427815423682258e-12,8.761720361835981e-15
	-5.427815601261348e-04,-2.693622738945233e-13
	-5.427815546983195e-04,3.339100631599966e-13
	-2.384957643543755e-22,-5.945106166926839e-13
	-5.427815546983195e-04,3.339100631599966e-13
32		2.089296130854037e+00,0.000000000000000e+00
	-5.427815546983195e+00,3.416878276836485e-09
	1.000000000000000e+00,0.000000000000000e+00
	0.000000000000000e+00,0.000000000000000e+00
	5.427815546983194e-04,-3.416878276836485e-13
	2.497357234446868e-22,6.083585478981331e-13
	5.427815423682258e-12,8.965807046590292e-15
	-5.427815601261348e-04,-2.756365272610748e-13
	-5.427815546983195e-04,3.416878276836485e-13
	-2.497357234446868e-22,-6.083585478981331e-13
	-5.427815546983195e-04,3.416878276836485e-13
33		2.137962089502230e+00,0.000000000000000e+00
	-5.427815546983195e+00,3.496467596163114e-09
	1.000000000000000e+00,0.000000000000000e+00
	0.000000000000000e+00,0.000000000000000e+00
	5.427815546983194e-04,-3.496467596163113e-13
	2.615054054870758e-22,6.225290388582550e-13
	5.427815423682258e-12,9.174647520917196e-15
	-5.427815601261348e-04,-2.820569267628609e-13
	-5.427815546983195e-04,3.496467596163114e-13
	-2.615054054870758e-22,-6.225290388582550e-13
	-5.427815546983195e-04,3.496467596163114e-13
34		2.187761623949550e+00,0.000000000000000e+00
	-5.427815546983195e+00,3.577910788890449e-09
	1.000000000000000e+00,0.000000000000000e+00
	0.000000000000000e+00,0.000000000000000e+00
	5.427815546983194e-04,-3.577910788890448e-13
	2.738297755551435e-22,6.370296029549257e-13
	5.427815423682258e-12,9.388352514800547e-15
	-5.427815601261348e-04,-2.886268765806814e-13
	-5.427815546983195e-04,3.577910788890449e-13
	-2.738297755551435e-22,-6.370296029549257e-13
	-5.427815546983195e-04,3.577910788890449e-13
35		2.238721138568337e+00,0.000000000000000e+00
	-5.427815546983195e+00,3.661251037277300e-09
	1.000000000000000e+00,0.000000000000000e+00
	0.000000000000000e+00,0.000000000000000e+00
	5.427815546983194e-04,-3.661251037277301e-13
	2.867349752901610e-22,6.518679285791666e-13
	5.427815423682258e-12,9.607035337456854e-15
	-5.427815601261348e-04,-2.953498601888934e-13
	-5.427815546983195e-04,3.661251037277300e-13
	-2.867349752901610e-22,-6.518679285791666e-13
	-5.427815546983195e-04,3.661251037277300e-13
36		2.290867652767770e+00,0.000000000000000e+00
	-5.427815546983195e+00,3.746532529426504e-09
	1.000000000000000e+00,0.000000000000000e+00
	0.000000000000000e+00,0.000000000000000e+00
	5.427815546983194e-04,-3.746532529426503e-13
	3.002483783509969e-22,6.670518832076323e-13
	5.427815423682258e-12,9.830811937413063e-15
	-5.427815601261348e-04,-3.022294422023951e-13
	-5.427815546983195e-04,3.746532529426504e-13
	-3.002483783509969e-22,-6.670518832076323e-13
	-5.427815546983195e-04,3.746532529426504e-13
37		2.344228815319919e+00,0.000000000000000e+00
	-5.427815546983195e+00,3.833800482714029e-09
	1.000000000000000e+00,0.000000000000000e+00
	0.000000000000000e+00,0.000000000000000e+00
	5.427815546983194e-04,-3.833800482714030e-13
	3.143986484773164e-22,6.825895175740500e-13
	5.427815423682258e-12,1.005980096398504e-14
	-5.427815601261348e-04,-3.092692702666321e-13
	-5.427815546983195e-04,3.833800482714029e-13
	-3.143986484773164e-22,-6.825895175740500e-13
	-5.427815546983195e-04,3.833800482714029e-13
38		2.398832919019488e+00,0.000000000000000e+00
	-5.427815546983195e+00,3.923101167763838e-09
	1.000000000000000e+00,0.000000000000000e+00
	0.000000000000000e+00,0.000000000000000e+00
	5.427815546983194e-04,-3.923101167763838e-13
	3.292158002892175e-22,6.984890699378262e-13
	5.427815423682258e-12,1.029412383018482e-14
	-5.427815601261348e-04,-3.164730769916272e-13
	-5.427815546983195e-04,3.923101167763839e-13
	-3.292158002892175e-22,-6.984890699378262e-13
	-5.427815546983195e-04,3.923101167763839e-13
39		2.454708915685027e+00,0.000000000000000e+00
	-5.427815546983195e+00,4.014481932981179e-09
	1.000000000000000e+00,0.000000000000000e+00
	0.000000000000000e+00,0.000000000000000e+00
	5.427815546983194e-04,-4.014481932981178e-13
	3.447312629522632e-22,7.147589704520790e-13
	5.427815423682258e-12,1.053390477709853e-14
	-5.427815601261348e-04,-3.238446819310597e-13
	-5.427815546983195e-04,4.014481932981179e-13
	-3.447312629522632e-22,-7.147589704520790e-13
	-5.427815546983195e-04,4.014481932981179e-13
40		2.511886431509577e+00,0.000000000000000e+00
	-5.427815546983195e+00,4.107991229657336e-09
	1.000000000000000e+00,0.000000000000000e+00
	0.000000000000000e+00,0.000000000000000e+00
	5.427815546983194e-04,-4.107991229657336e-13
	3.609779468429562e-22,7.314078456334190e-13
	5.427815423682258e-12,1.077927093975768e-14
	-5.427815601261348e-04,-3.313879936074431e-13
	-5.427815546983195e-04,4.107991229657336e-13
	-3.609779468429562e-22,-7.314078456334190e-13
	-5.427815546983195e-04,4.107991229657336e-13
41		2.570395782768860e+00,0.000000000000000e+00
	-5.427815546983195e+00,4.203678637659149e-09
	1.000000000000000e+00,0.000000000000000e+00
	0.000000000000000e+00,0.000000000000000e+00
	5.427815546983194e-04,-4.203678637659149e-13
	3.779903133560594e-22,7.484445229358412e-13
	5.427815423682258e-12,1.103035241454950e-14
	-5.427815601261348e-04,-3.391070115844758e-13
	-5.427815546983195e-04,4.203678637659149e-13
	-3.779903133560594e-22,-7.484445229358412e-13
	-5.427815546983195e-04,4.203678637659149e-13
42		2.630267991895378e+00,0.000000000000000e+00
	-5.427815546983195e+00,4.301594891716915e-09
	1.000000000000000e+00,0.000000000000000e+00
	0.000000000000000e+00,0.000000000000000e+00
	5.427815546983194e-04,-4.301594891716916e-13
	3.958044480018350e-22,7.658780354311584e-13
	5.427815423682258e-12,1.128728232819584e-14
	-5.427815601261348e-04,-3.470058285876626e-13
	-5.427815546983195e-04,4.301594891716915e-13
	-3.958044480018350e-22,-7.658780354311584e-13
	-5.427815546983195e-04,4.301594891716915e-13
43		2.691534803926912e+00,0.000000000000000e+00
	-5.427815546983195e+00,4.401791908324609e-09
	1.000000000000000e+00,0.000000000000000e+00
	0.000000000000000e+00,0.000000000000000e+00
	5.427815546983194e-04,-4.401791908324609e-13
	4.144581369482494e-22,7.837176265984556e-13
	5.427815423682258e-12,1.155019690833713e-14
	-5.427815601261348e-04,-3.550886326743318e-13
	-5.427815546983195e-04,4.401791908324610e-13
	-4.144581369482494e-22,-7.837176265984556e-13
	-5.427815546983195e-04,4.401791908324610e-13
44		2.754228703338163e+00,0.000000000000000e+00
	-5.427815546983195e+00,4.504322813266699e-09
	1.000000000000000e+00,0.000000000000000e+00
	0.000000000000000e+00,0.000000000000000e+00
	5.427815546983194e-04,-4.504322813266699e-13
	4.339909471705011e-22,8.019727552251043e-13
	5.427815423682258e-12,1.181923555576403e-14
	-5.427815601261348e-04,-3.633597094541984e-13
	-5.427815546983195e-04,4.504322813266699e-13
	-4.339909471705011e-22,-8.019727552251043e-13
	-5.427815546983195e-04,4.504322813266699e-13
45		2.818382931264450e+00,0.000000000000000e+00
	-5.427815546983195e+00,4.609241969786145e-09
	1.000000000000000e+00,0.000000000000000e+00
	0.000000000000000e+00,0.000000000000000e+00
	5.427815546983194e-04,-4.609241969786146e-13
	4.544443103778815e-22,8.206531004219378e-13
	5.427815423682258e-12,1.209454091832898e-14
	-5.427815601261348e-04,-3.718234443616521e-13
	-5.427815546983195e-04,4.609241969786145e-13
	-4.544443103778815e-22,-8.206531004219378e-13
	-5.427815546983195e-04,4.609241969786145e-13
46		2.884031503126602e+00,0.000000000000000e+00
	-5.427815546983195e+00,4.716605007408502e-09
	1.000000000000000e+00,0.000000000000000e+00
	0.000000000000000e+00,0.000000000000000e+00
	5.427815546983194e-04,-4.716605007408501e-13
	4.758616108959832e-22,8.397685667552427e-13
	5.427815423682258e-12,1.237625896657902e-14
	-5.427815601261348e-04,-3.804843249809715e-13
	-5.427815546983195e-04,4.716605007408502e-13
	-4.758616108959832e-22,-8.397685667552427e-13
	-5.427815546983195e-04,4.716605007408502e-13
47		2.951209226666381e+00,0.000000000000000e+00
	-5.427815546983195e+00,4.826468851437434e-09
	1.000000000000000e+00,0.000000000000000e+00
	0.000000000000000e+00,0.000000000000000e+00
	5.427815546983194e-04,-4.826468851437433e-13
	4.982882776906731e-22,8.593292894982926e-13
	5.427815423682258e-12,1.266453907115199e-14
	-5.427815601261348e-04,-3.893469434257013e-13
	-5.427815546983195e-04,4.826468851437434e-13
	-4.982882776906731e-22,-8.593292894982926e-13
	-5.427815546983195e-04,4.826468851437434e-13
48		3.019951720402012e+00,0.000000000000000e+00
	-5.427815546983195e+00,4.938891753137266e-09
	1.000000000000000e+00,0.000000000000000e+00
	0.000000000000000e+00,0.000000000000000e+00
	5.427815546983194e-04,-4.938891753137268e-13
	5.217718807290179e-22,8.793456400052023e-13
	5.427815423682258e-12,1.295953408197572e-14
	-5.427815601261348e-04,-3.984159987734513e-13
	-5.427815546983195e-04,4.938891753137266e-13
	-5.217718807290179e-22,-8.793456400052023e-13
	-5.427815546983195e-04,4.938891753137266e-13
49		3.090295432513586e+00,0.000000000000000e+00
	-5.427815546983195e+00,5.053933320618573e-09
	1.000000000000000e+00,0.000000000000000e+00
	0.000000000000000e+00,0.000000000000000e+00
	5.427815546983194e-04,-5.053933320618573e-13
	5.463622318815637e-22,8.998282312099583e-13
	5.427815423682258e-12,1.326140040930929e-14
	-5.427815601261348e-04,-4.076962995574103e-13
	-5.427815546983195e-04,5.053933320618573e-13
	-5.463622318815637e-22,-8.998282312099583e-13
	-5.427815546983195e-04,5.053933320618573e-13
50		3.162277660168374e+00,0.000000000000000e+00
	-5.427815546983195e+00,5.171654550443187e-09
	1.000000000000000e+00,0.000000000000000e+00
	0.000000000000000e+00,0.000000000000000e+00
	5.427815546983194e-04,-5.171654550443187e-13
	5.721114905799907e-22,9.207879232535365e-13
	5.427815423682258e-12,1.357029810667525e-14
	-5.427815601261348e-04,-4.171927663158931e-13
	-5.427815546983195e-04,5.171654550443187e-13
	-5.721114905799907e-22,-9.207879232535365e-13
	-5.427815546983195e-04,5.171654550443187e-13
51		3.235936569296277e+00,0.000000000000000e+00
	-5.427815546983195e+00,5.292117859965387e-09
	1.000000000000000e+00,0.000000000000000e+00
	0.000000000000000e+00,0.000000000000000e+00
	5.427815546983194e-04,-5.292117859965388e-13
	5.990742744542614e-22,9.422358292420926e-13
	5.427815423682258e-12,1.388639095572168e-14
	-5.427815601261348e-04,-4.269104342012755e-13
	-5.427815546983195e-04,5.292117859965387e-13
	-5.990742744542614e-22,-9.422358292420926e-13
	-5.427815546983195e-04,5.292117859965387e-13
52		3.311311214825905e+00,0.000000000000000e+00
	-5.427815546983195e+00,5.415387120426402e-09
	1.000000000000000e+00,0.000000000000000e+00
	0.000000000000000e+00,0.000000000000000e+00
	5.427815546983194e-04,-5.415387120426402e-13
	6.273077751839368e-22,9.641833211392786e-13
	5.427815423682258e-12,1.420984655306075e-14
	-5.427815601261348e-04,-4.368544556496992e-13
	-5.427815546983195e-04,5.415387120426402e-13
	-6.273077751839368e-22,-9.641833211392786e-13
	-5.427815546983195e-04,5.415387120426402e-13
53		3.388441561392020e+00,0.000000000000000e+00
	-5.427815546983195e+00,5.541527690819788e-09
	1.000000000000000e+00,0.000000000000000e+00
	0.000000000000000e+00,0.000000000000000e+00
	5.427815546983194e-04,-5.541527690819790e-13
	6.568718798093957e-22,9.866420357958077e-13
	5.427815423682258e-12,1.454083639913200e-14
	-5.427815601261348e-04,-4.470301031129607e-13
	-5.427815546983195e-04,5.541527690819788e-13
	-6.568718798093957e-22,-9.866420357958077e-13
	-5.427815546983195e-04,5.541527690819788e-13
54		3.467368504525310e+00,0.000000000000000e+00
	-5.427815546983195e+00,5.670606452545639e-09
	1.000000000000000e+00,0.000000000000000e+00
	0.000000000000000e+00,0.000000000000000e+00
	5.427815546983194e-04,-5.670606452545640e-13
	6.878292977602775e-22,1.009623881119467e-12
	5.427815423682258e-12,1.487953598913267e-14
	-5.427815601261348e-04,-4.574427718540356e-13
	-5.427815546983195e-04,5.670606452545640e-13
	-6.878292977602775e-22,-1.009623881119467e-12
	-5.427815546983195e-04,5.670606452545640e-13
55		3.548133892335748e+00,0.000000000000000e+00
	-5.427815546983195e+00,5.802691844871980e-09
	1.000000000000000e+00,0.000000000000000e+00
	0.000000000000000e+00,0.000000000000000e+00
	5.427815546983194e-04,-5.802691844871978e-13
	7.202456938705893e-22,1.033141042388848e-12
	5.427815423682258e-12,1.522612490606846e-14
	-5.427815601261348e-04,-4.680979828077185e-13
	-5.427815546983195e-04,5.802691844871980e-13
	-7.202456938705893e-22,-1.033141042388848e-12
	-5.427815546983195e-04,5.802691844871980e-13
56		3.630780547701007e+00,0.000000000000000e+00
	-5.427815546983195e+00,5.937853901222178e-09
	1.000000000000000e+00,0.000000000000000e+00
	0.000000000000000e+00,0.000000000000000e+00
	5.427815546983194e-04,-5.937853901222175e-13
	7.541898276626227e-22,1.057205988714141e-12
	5.427815423682258e-12,1.558078691597138e-14
	-5.427815601261348e-04,-4.790013855078953e-13
	-5.427815546983195e-04,5.937853901222179e-13
	-7.541898276626227e-22,-1.057205988714141e-12
	-5.427815546983195e-04,5.937853901222179e-13
57		3.715352290971718e+00,0.000000000000000e+00
	-5.427815546983195e+00,6.076164286307591e-09
	1.000000000000000e+00,0.000000000000000e+00
	0.000000000000000e+00,0.000000000000000e+00
	5.427815546983194e-04,-6.076164286307592e-13
	7.897336991951202e-22,1.081831479648427e-12
	5.427815423682258e-12,1.594371006533327e-14
	-5.427815601261348e-04,-4.901587610830010e-13
	-5.427815546983195e-04,6.076164286307592e-13
	-7.897336991951202e-22,-1.081831479648427e-12
	-5.427815546983195e-04,6.076164286307592e-13
58		3.801893963205605e+00,0.000000000000000e+00