Title: * GA CMOS Amp | W=5e-05 L=4.519541141908793e-07 Vbias=1.1062990212736512
Date: Sat Sep  6 22:38:05 2025
Plotname: AC Analysis
Flags: complex forward log
No. Variables: 13
No. Points:          901
Offset:    0.0000000000000000e+00
Command: Linear Technology Corporation LTspice
Variables:
	0	frequency	frequency
	1	V(out)	voltage
	2	V(g)	voltage
	3	V(vdd)	voltage
	4	V(m1#dbody)	voltage
	5	V(m1#sbody)	voltage
	6	Id(M1)	device_current
	7	Ig(M1)	device_current
	8	Ib(M1)	device_current
	9	Is(M1)	device_current
	10	I(Rload)	device_current
	11	I(Vg)	device_current
	12	I(Vdd)	device_current
Values:
0		1.000000000000000e+00,0.000000000000000e+00
	7.283074212907232e-04,2.830473204895521e-10
	1.000000000000000e+00,0.000000000000000e+00
	0.000000000000000e+00,0.000000000000000e+00
	2.617597529941264e-05,4.997075790691909e-14
	2.617597529284771e-05,4.909878717603884e-14
	-7.283074212906949e-08,-2.830473204895418e-14
	2.849151684275282e-05,6.043043143838496e-12
	-1.396052016718872e-05,-2.626388746253214e-14
	-1.445816593343502e-05,-5.988474524327010e-12
	7.283074212907233e-08,2.830473204895521e-14
	-2.849151684274076e-05,-6.043043143838496e-12
	7.283074212907233e-08,2.830473204895521e-14
1		1.023292992280754e+00,0.000000000000000e+00
	7.283074212907232e-04,2.896403395408034e-10
	1.000000000000000e+00,0.000000000000000e+00
	0.000000000000000e+00,0.000000000000000e+00
	2.617597529941264e-05,5.113472638510839e-14
	2.617597529284771e-05,5.024244484672470e-14
	-7.283074212906949e-08,-2.896403395407969e-14
	2.849151684275282e-05,6.183803701140191e-12
	-1.396052016718872e-05,-2.687565199045950e-14
	-1.445816593343502e-05,-6.127964015195652e-12
	7.283074212907233e-08,2.896403395408034e-14
	-2.849151684274076e-05,-6.183803701140192e-12
	7.283074212907233e-08,2.896403395408034e-14
2		1.047128548050899e+00,0.000000000000000e+00
	7.283074212907232e-04,2.963869297339223e-10
	1.000000000000000e+00,0.000000000000000e+00
	0.000000000000000e+00,0.000000000000000e+00
	2.617597529941264e-05,5.232580717207520e-14
	2.617597529284771e-05,5.141274172670568e-14
	-7.283074212906949e-08,-2.963869297339223e-14
	2.849151684275282e-05,6.327842993016548e-12
	-1.396052016718872e-05,-2.750166634481351e-14
	-1.445816593343502e-05,-6.270702633698342e-12
	7.283074212907233e-08,2.963869297339223e-14
	-2.849151684274076e-05,-6.327842993016547e-12
	7.283074212907233e-08,2.963869297339223e-14
3		1.071519305237606e+00,0.000000000000000e+00
	7.283074212907232e-04,3.032906682003309e-10
	1.000000000000000e+00,0.000000000000000e+00
	0.000000000000000e+00,0.000000000000000e+00
	2.617597529941264e-05,5.354463179461857e-14
	2.617597529284771e-05,5.261029832287823e-14
	-7.283074212906949e-08,-3.032906682003334e-14
	2.849151684275282e-05,6.475237391006705e-12
	-1.396052016718872e-05,-2.814226244669112e-14
	-1.445816593343502e-05,-6.416766061739981e-12
	7.283074212907233e-08,3.032906682003309e-14
	-2.849151684274076e-05,-6.475237391006706e-12
	7.283074212907233e-08,3.032906682003309e-14
4		1.096478196143185e+00,0.000000000000000e+00
	7.283074212907232e-04,3.103552153935459e-10
	1.000000000000000e+00,0.000000000000000e+00
	0.000000000000000e+00,0.000000000000000e+00
	2.617597529941264e-05,5.479184648968642e-14
	2.617597529284770e-05,5.383574959560120e-14
	-7.283074212906949e-08,-3.103552153935428e-14
	2.849151684275282e-05,6.626065045571473e-12
	-1.396052016718872e-05,-2.879777994862485e-14
	-1.445816593343502e-05,-6.566231744083494e-12
	7.283074212907233e-08,3.103552153935459e-14
	-2.849151684274076e-05,-6.626065045571475e-12
	7.283074212907233e-08,3.103552153935459e-14
5		1.122018454301963e+00,0.000000000000000e+00
	7.283074212907232e-04,3.175843170299996e-10
	1.000000000000000e+00,0.000000000000000e+00
	0.000000000000000e+00,0.000000000000000e+00
	2.617597529941264e-05,5.606811254701896e-14
	2.617597529284770e-05,5.508974529536016e-14
	-7.283074212906949e-08,-3.175843170300009e-14
	2.849151684275282e-05,6.780405927529747e-12
	-1.396052016718872e-05,-2.946856641467103e-14
	-1.445816593343502e-05,-6.719178929412075e-12
	7.283074212907233e-08,3.175843170299996e-14
	-2.849151684274076e-05,-6.780405927529748e-12
	7.283074212907233e-08,3.175843170299996e-14
6		1.148153621496882e+00,0.000000000000000e+00
	7.283074212907232e-04,3.249818060750680e-10
	1.000000000000000e+00,0.000000000000000e+00
	0.000000000000000e+00,0.000000000000000e+00
	2.617597529941264e-05,5.737410665977313e-14
	2.617597529284770e-05,5.637295030727368e-14
	-7.283074212906949e-08,-3.249818060750652e-14
	2.849151684275282e-05,6.938341870460076e-12
	-1.396052016718872e-05,-3.015497750469284e-14
	-1.445816593343502e-05,-6.875688712347877e-12
	7.283074212907233e-08,3.249818060750680e-14
	-2.849151684274076e-05,-6.938341870460077e-12
	7.283074212907233e-08,3.249818060750680e-14
7		1.174897554939529e+00,0.000000000000000e+00
	7.283074212907232e-04,3.325516047753601e-10
	1.000000000000000e+00,0.000000000000000e+00
	0.000000000000000e+00,0.000000000000000e+00
	2.617597529941264e-05,5.871052128331438e-14
	2.617597529284770e-05,5.768604500362435e-14
	-7.283074212906949e-08,-3.325516047753516e-14
	2.849151684275282e-05,7.099956614089936e-12
	-1.396052016718872e-05,-3.085737716293596e-14
	-1.445816593343502e-05,-7.035844076449464e-12
	7.283074212907233e-08,3.325516047753601e-14
	-2.849151684274076e-05,-7.099956614089936e-12
	7.283074212907233e-08,3.325516047753601e-14
8		1.202264434617413e+00,0.000000000000000e+00
	7.283074212907232e-04,3.402977267383450e-10
	1.000000000000000e+00,0.000000000000000e+00
	0.000000000000000e+00,0.000000000000000e+00
	2.617597529941264e-05,6.007806500236568e-14
	2.617597529284770e-05,5.902972560460100e-14
	-7.283074212906949e-08,-3.402977267383350e-14
	2.849151684275282e-05,7.265335848695622e-12
	-1.396052016718872e-05,-3.157613781099655e-14
	-1.445816593343502e-05,-7.199729938210792e-12
	7.283074212907233e-08,3.402977267383450e-14
	-2.849151684274076e-05,-7.265335848695622e-12
	7.283074212907233e-08,3.402977267383450e-14
9		1.230268770812381e+00,0.000000000000000e+00
	7.283074212907232e-04,3.482242790604195e-10
	1.000000000000000e+00,0.000000000000000e+00
	0.000000000000000e+00,0.000000000000000e+00
	2.617597529941264e-05,6.147746290670842e-14
	2.617597529284770e-05,6.040470454744401e-14
	-7.283074212906949e-08,-3.482242790604042e-14
	2.849151684275282e-05,7.434567260536375e-12
	-1.396052016718872e-05,-3.231164054528412e-14
	-1.445816593343502e-05,-7.367433192085050e-12
	7.283074212907233e-08,3.482242790604195e-14
	-2.849151684274076e-05,-7.434567260536375e-12
	7.283074212907233e-08,3.482242790604195e-14
10		1.258925411794167e+00,0.000000000000000e+00
	7.283074212907233e-04,3.563354645045448e-10
	1.000000000000000e+00,0.000000000000000e+00
	0.000000000000000e+00,0.000000000000000e+00
	2.617597529941264e-05,6.290945697563475e-14
	2.617597529284770e-05,6.181171086418887e-14
	-7.283074212906949e-08,-3.563354645045445e-14
	2.849151684275282e-05,7.607740578346794e-12
	-1.396052016718872e-05,-3.306427533908394e-14
	-1.445816593343503e-05,-7.539042756557257e-12
	7.283074212907234e-08,3.563354645045448e-14
	-2.849151684274076e-05,-7.607740578346796e-12
	7.283074212907234e-08,3.563354645045448e-14
11		1.288249551693134e+00,0.000000000000000e+00
	7.283074212907233e-04,3.646355837286082e-10
	1.000000000000000e+00,0.000000000000000e+00
	0.000000000000000e+00,0.000000000000000e+00
	2.617597529941264e-05,6.437480647135464e-14
	2.617597529284770e-05,6.325149056820861e-14
	-7.283074212906949e-08,-3.646355837286076e-14
	2.849151684275282e-05,7.784947620912209e-12
	-1.396052016718872e-05,-3.383444124932595e-14
	-1.445816593343503e-05,-7.714649621290022e-12
	7.283074212907234e-08,3.646355837286082e-14
	-2.849151684274076e-05,-7.784947620912209e-12
	7.283074212907234e-08,3.646355837286082e-14
12		1.318256738556407e+00,0.000000000000000e+00
	7.283074212907233e-04,3.731290375656869e-10
	1.000000000000000e+00,0.000000000000000e+00
	0.000000000000000e+00,0.000000000000000e+00
	2.617597529941264e-05,6.587428834156695e-14
	2.617597529284770e-05,6.472480704976010e-14
	-7.283074212906949e-08,-3.731290375656929e-14
	2.849151684275282e-05,7.966282345752192e-12
	-1.396052016718872e-05,-3.462254662817013e-14
	-1.445816593343503e-05,-7.894346895367453e-12
	7.283074212907234e-08,3.731290375656869e-14
	-2.849151684274076e-05,-7.966282345752194e-12
	7.283074212907234e-08,3.731290375656869e-14
13		1.348962882591653e+00,0.000000000000000e+00
	7.283074212907233e-04,3.818203293574297e-10
	1.000000000000000e+00,0.000000000000000e+00
	0.000000000000000e+00,0.000000000000000e+00
	2.617597529941264e-05,6.740869763140722e-14
	2.617597529284770e-05,6.623244148074347e-14
	-7.283074212906949e-08,-3.818203293574270e-14
	2.849151684275282e-05,8.151840898938106e-12
	-1.396052016718872e-05,-3.542900933952014e-14
	-1.445816593343503e-05,-8.078229856662843e-12
	7.283074212907234e-08,3.818203293574297e-14
	-2.849151684274076e-05,-8.151840898938107e-12
	7.283074212907234e-08,3.818203293574297e-14
14		1.380384264602885e+00,0.000000000000000e+00
	7.283074212907233e-04,3.907140673417875e-10
	1.000000000000000e+00,0.000000000000000e+00
	0.000000000000000e+00,0.000000000000000e+00
	2.617597529941264e-05,6.897884790499130e-14
	2.617597529284770e-05,6.777519322888993e-14
	-7.283074212906949e-08,-3.907140673417769e-14
	2.849151684275282e-05,8.341721666071007e-12
	-1.396052016718872e-05,-3.625425698058036e-14
	-1.445816593343503e-05,-8.266396002356250e-12
	7.283074212907234e-08,3.907140673417875e-14
	-2.849151684274076e-05,-8.341721666071010e-12
	7.283074212907234e-08,3.907140673417875e-14
15		1.412537544622754e+00,0.000000000000000e+00
	7.283074212907233e-04,3.998149670963618e-10
	1.000000000000000e+00,0.000000000000000e+00
	0.000000000000000e+00,0.000000000000000e+00
	2.617597529941264e-05,7.058557167677757e-14
	2.617597529284770e-05,6.935388028159706e-14
	-7.283074212906949e-08,-3.998149670963512e-14
	2.849151684275282e-05,8.536025324447000e-12
	-1.396052016718872e-05,-3.709872710857349e-14
	-1.445816593343503e-05,-8.458945100628791e-12
	7.283074212907234e-08,3.998149670963618e-14
	-2.849151684274076e-05,-8.536025324446998e-12
	7.283074212907234e-08,3.998149670963618e-14
16		1.445439770745927e+00,0.000000000000000e+00
	7.283074212907233e-04,4.091278540386671e-10
	1.000000000000000e+00,0.000000000000000e+00
	0.000000000000000e+00,0.000000000000000e+00
	2.617597529941264e-05,7.222972085297735e-14
	2.617597529284770e-05,7.096933967963664e-14
	-7.283074212906949e-08,-4.091278540386664e-14
	2.849151684275282e-05,8.734854896437662e-12
	-1.396052016718872e-05,-3.796286747273928e-14
	-1.445816593343503e-05,-8.655979243561056e-12
	7.283074212907234e-08,4.091278540386671e-14
	-2.849151684274076e-05,-8.734854896437664e-12
	7.283074212907234e-08,4.091278540386671e-14
17		1.479108388168207e+00,0.000000000000000e+00
	7.283074212907233e-04,4.186576659846312e-10
	1.000000000000000e+00,0.000000000000000e+00
	0.000000000000000e+00,0.000000000000000e+00
	2.617597529941264e-05,7.391216718324678e-14
	2.617597529284770e-05,7.262242796096463e-14
	-7.283074212906949e-08,-4.186576659846393e-14
	2.849151684275282e-05,8.938315804113893e-12
	-1.396052016718872e-05,-3.884713625173709e-14
	-1.445816593343503e-05,-8.857602901263691e-12
	7.283074212907234e-08,4.186576659846312e-14
	-2.849151684274076e-05,-8.938315804113893e-12
	7.283074212907234e-08,4.186576659846312e-14
18		1.513561248436208e+00,0.000000000000000e+00
	7.283074212907233e-04,4.284094557666898e-10
	1.000000000000000e+00,0.000000000000000e+00
	0.000000000000000e+00,0.000000000000000e+00
	2.617597529941264e-05,7.563380272289995e-14
	2.617597529284770e-05,7.431402161486901e-14
	-7.283074212907119e-08,-4.284094557666944e-14
	2.849151684275282e-05,9.146515925142060e-12
	-1.396052016718872e-05,-3.975200229657821e-14
	-1.445816593343503e-05,-9.063922977268812e-12
	7.283074212907234e-08,4.284094557666898e-14
	-2.849151684274076e-05,-9.146515925142062e-12
	7.283074212907234e-08,4.284094557666898e-14
19		1.548816618912481e+00,0.000000000000000e+00
	7.283074212907233e-04,4.383883939128654e-10
	1.000000000000000e+00,0.000000000000000e+00
	0.000000000000000e+00,0.000000000000000e+00
	2.617597529941264e-05,7.739554030588854e-14
	2.617597529284770e-05,7.604501754669594e-14
	-7.283074212907119e-08,-4.383883939128595e-14
	2.849151684275282e-05,9.359565649982188e-12
	-1.396052016718872e-05,-4.067794537921692e-14
	-1.445816593343503e-05,-9.275048865211686e-12
	7.283074212907234e-08,4.383883939128655e-14
	-2.849151684274076e-05,-9.359565649982188e-12
	7.283074212907234e-08,4.383883939128655e-14
20		1.584893192461113e+00,0.000000000000000e+00
	7.283074212907233e-04,4.485997713882499e-10
	1.000000000000000e+00,0.000000000000000e+00
	0.000000000000000e+00,0.000000000000000e+00
	2.617597529941264e-05,7.919831402879838e-14
	2.617597529284770e-05,7.781633355340093e-14
	-7.283074212907119e-08,-4.485997713882396e-14
	2.849151684275282e-05,9.577577940418433e-12
	-1.396052016718872e-05,-4.162545644693195e-14
	-1.445816593343503e-05,-9.491092506832678e-12
	7.283074212907234e-08,4.485997713882499e-14
	-2.849151684274076e-05,-9.577577940418434e-12
	7.283074212907234e-08,4.485997713882499e-14
21		1.621810097358929e+00,0.000000000000000e+00
	7.283074212907234e-04,4.590490024003445e-10
	1.000000000000000e+00,0.000000000000000e+00
	0.000000000000000e+00,0.000000000000000e+00
	2.617597529941264e-05,8.104307974611994e-14
	2.617597529284770e-05,7.962890881017692e-14
	-7.283074212906949e-08,-4.590490024003307e-14
	2.849151684275282e-05,9.800668389452923e-12
	-1.396052016718872e-05,-4.259503788263322e-14
	-1.445816593343503e-05,-9.712168451330256e-12
	7.283074212907235e-08,4.590490024003445e-14
	-2.849151684274076e-05,-9.800668389452925e-12
	7.283074212907235e-08,4.590490024003445e-14
22		1.659586907437560e+00,0.000000000000000e+00
	7.283074212907234e-04,4.697416272697437e-10
	1.000000000000000e+00,0.000000000000000e+00
	0.000000000000000e+00,0.000000000000000e+00
	2.617597529941264e-05,8.293081557705485e-14
	2.617597529284770e-05,8.148370436841723e-14
	-7.283074212906949e-08,-4.697416272697397e-14
	2.849151684275282e-05,1.002895528259468e-11
	-1.396052016718872e-05,-4.358720377123182e-14
	-1.445816593343503e-05,-9.938393916096473e-12
	7.283074212907235e-08,4.697416272697437e-14
	-2.849151684274076e-05,-1.002895528259468e-11
	7.283074212907235e-08,4.697416272697437e-14
23		1.698243652461743e+00,0.000000000000000e+00
	7.283074212907234e-04,4.806833153676867e-10
	1.000000000000000e+00,0.000000000000000e+00
	0.000000000000000e+00,0.000000000000000e+00
	2.617597529941264e-05,8.486252242412784e-14
	2.617597529284770e-05,8.338170366527803e-14
	-7.283074212906949e-08,-4.806833153676779e-14
	2.849151684275282e-05,1.026255966057619e-11
	-1.396052016718872e-05,-4.460248017221479e-14
	-1.445816593343503e-05,-1.016988884886720e-11
	7.283074212907235e-08,4.806833153676867e-14
	-2.849151684274076e-05,-1.026255966057619e-11
	7.283074212907235e-08,4.806833153676867e-14
24		1.737800828749374e+00,0.000000000000000e+00
	7.283074212907234e-04,4.918798681220335e-10
	1.000000000000000e+00,0.000000000000000e+00
	0.000000000000000e+00,0.000000000000000e+00
	2.617597529941264e-05,8.683922450387834e-14
	2.617597529284770e-05,8.532391304510944e-14
	-7.283074212906949e-08,-4.918798681220272e-14
	2.849151684275282e-05,1.050160538353076e-11
	-1.396052016718872e-05,-4.564140539856865e-14
	-1.445816593343503e-05,-1.040677599131999e-11
	7.283074212907235e-08,4.918798681220335e-14
	-2.849151684274076e-05,-1.050160538353077e-11
	7.283074212907235e-08,4.918798681220335e-14
25		1.778279410038922e+00,0.000000000000000e+00
	7.283074212907236e-04,5.033372220932583e-10
	1.000000000000000e+00,0.000000000000000e+00
	0.000000000000000e+00,0.000000000000000e+00
	2.617597529941264e-05,8.886196988991385e-14
	2.617597529284770e-05,8.731136229303294e-14
	-7.283074212906949e-08,-5.033372220932564e-14
	2.849151684275282e-05,1.074621919666487e-11
	-1.396052016718872e-05,-4.670453030220029e-14
	-1.445816593343503e-05,-1.064918094415335e-11
	7.283074212907237e-08,5.033372220932583e-14
	-2.849151684274076e-05,-1.074621919666488e-11
	7.283074212907237e-08,5.033372220932583e-14
26		1.819700858609982e+00,0.000000000000000e+00
	7.283074212907236e-04,5.150614521220928e-10
	1.000000000000000e+00,0.000000000000000e+00
	0.000000000000000e+00,0.000000000000000e+00
	2.617597529941264e-05,9.093183106861223e-14
	2.617597529284770e-05,8.934510518094668e-14
	-7.283074212906949e-08,-5.150614521220778e-14
	2.849151684275282e-05,1.099653079746008e-11
	-1.396052016718872e-05,-4.779241856600569e-14
	-1.445816593343503e-05,-1.089723223368186e-11
	7.283074212907237e-08,5.150614521220928e-14
	-2.849151684274076e-05,-1.099653079746008e-11
	7.283074212907237e-08,5.150614521220928e-14
27		1.862087136662866e+00,0.000000000000000e+00
	7.283074212907236e-04,5.270587745504867e-10
	1.000000000000000e+00,0.000000000000000e+00
	0.000000000000000e+00,0.000000000000000e+00
	2.617597529941264e-05,9.304990550776825e-14
	2.617597529284770e-05,9.142622002624962e-14
	-7.283074212906949e-08,-5.270587745504755e-14
	2.849151684275282e-05,1.125267290444039e-11
	-1.396052016718872e-05,-4.890564700274223e-14
	-1.445816593343503e-05,-1.115106137998260e-11
	7.283074212907237e-08,5.270587745504868e-14
	-2.849151684274076e-05,-1.125267290444039e-11
	7.283074212907237e-08,5.270587745504868e-14
28		1.905460717963246e+00,0.000000000000000e+00
	7.283074212907237e-04,5.393355505175949e-10
	1.000000000000000e+00,0.000000000000000e+00
	0.000000000000000e+00,0.000000000000000e+00
	2.617597529941263e-05,9.521731623848558e-14
	2.617597529284770e-05,9.355581026357956e-14
	-7.283074212906780e-08,-5.393355505175839e-14
	2.849151684275282e-05,1.151478132754137e-11
	-1.396052016718872e-05,-5.004480586086239e-14
	-1.445816593343503e-05,-1.141080296662875e-11
	7.283074212907238e-08,5.393355505175949e-14
	-2.849151684274076e-05,-1.151478132754137e-11
	7.283074212907238e-08,5.393355505175949e-14
29		1.949844599758044e+00,0.000000000000000e+00
	7.283074212907237e-04,5.518982893325375e-10
	1.000000000000000e+00,0.000000000000000e+00
	0.000000000000000e+00,0.000000000000000e+00
	2.617597529941263e-05,9.743521245062277e-14
	2.617597529284770e-05,9.573500502986884e-14
	-7.283074212906780e-08,-5.518982893325410e-14
	2.849151684275282e-05,1.178299504011837e-11
	-1.396052016718872e-05,-5.121049913747129e-14
	-1.445816593343503e-05,-1.167659471204764e-11
	7.283074212907238e-08,5.518982893325375e-14
	-2.849151684274076e-05,-1.178299504011837e-11
	7.283074212907238e-08,5.518982893325375e-14
30		1.995262314968878e+00,0.000000000000000e+00
	7.283074212907237e-04,5.647536519257216e-10
	1.000000000000000e+00,0.000000000000000e+00
	0.000000000000000e+00,0.000000000000000e+00
	2.617597529941263e-05,9.970477010210875e-14
	2.617597529284770e-05,9.796495976302752e-14
	-7.283074212906949e-08,-5.647536519257056e-14
	2.849151684275282e-05,1.205745625263200e-11
	-1.396052016718872e-05,-5.240334489857396e-14
	-1.445816593343503e-05,-1.194857754254086e-11
	7.283074212907238e-08,5.647536519257217e-14
	-2.849151684274076e-05,-1.205745625263201e-11
	7.283074212907238e-08,5.647536519257217e-14
31		2.041737944669527e+00,0.000000000000000e+00
	7.283074212907237e-04,5.779084543805550e-10
	1.000000000000000e+00,0.000000000000000e+00
	0.000000000000000e+00,0.000000000000000e+00
	2.617597529941263e-05,1.020271925424515e-13
	2.617597529284770e-05,1.002468568145721e-13
	-7.283074212906949e-08,-5.779084543805569e-14
	2.849151684275282e-05,1.233831048805009e-11
	-1.396052016718872e-05,-5.362397560678215e-14
	-1.445816593343503e-05,-1.222689566700525e-11
	7.283074212907238e-08,5.779084543805550e-14
	-2.849151684274076e-05,-1.233831048805009e-11
	7.283074212907238e-08,5.779084543805550e-14
32		2.089296130854037e+00,0.000000000000000e+00
	7.283074212907237e-04,5.913696715474240e-10
	1.000000000000000e+00,0.000000000000000e+00
	0.000000000000000e+00,0.000000000000000e+00
	2.617597529941263e-05,1.044037111507699e-13
	2.617597529284770e-05,1.025819060765238e-13
	-7.283074212906949e-08,-5.913696715474155e-14
	2.849151684275282e-05,1.262570665900579e-11
	-1.396052016718872e-05,-5.487303845665428e-14
	-1.445816593343503e-05,-1.251169665339439e-11
	7.283074212907238e-08,5.913696715474241e-14
	-2.849151684274076e-05,-1.262570665900579e-11
	7.283074212907238e-08,5.913696715474241e-14
33		2.137962089502230e+00,0.000000000000000e+00
	7.283074212907237e-04,6.051444407418503e-10
	1.000000000000000e+00,0.000000000000000e+00
	0.000000000000000e+00,0.000000000000000e+00
	2.617597529941263e-05,1.068355859886868e-13
	2.617597529284770e-05,1.049713456229093e-13
	-7.283074212906949e-08,-6.051444407418377e-14
	2.849151684275282e-05,1.291979714675308e-11
	-1.396052016718872e-05,-5.615119571784665e-14
	-1.445816593343503e-05,-1.280313150696105e-11
	7.283074212907238e-08,6.051444407418503e-14
	-2.849151684274076e-05,-1.291979714675308e-11
	7.283074212907238e-08,6.051444407418503e-14
34		2.187761623949550e+00,0.000000000000000e+00
	7.283074212907239e-04,6.192400655287913e-10
	1.000000000000000e+00,0.000000000000000e+00
	0.000000000000000e+00,0.000000000000000e+00
	2.617597529941263e-05,1.093241064684312e-13
	2.617597529284770e-05,1.074164423662041e-13
	-7.283074212906780e-08,-6.192400655287805e-14
	2.849151684275282e-05,1.322073788196131e-11
	-1.396052016718872e-05,-5.745912508625756e-14
	-1.445816593343503e-05,-1.310135475032217e-11
	7.283074212907239e-08,6.192400655287914e-14
	-2.849151684274076e-05,-1.322073788196131e-11
	7.283074212907239e-08,6.192400655287914e-14
35		2.238721138568337e+00,0.000000000000000e+00
	7.283074212907239e-04,6.336640195950872e-10
	1.000000000000000e+00,0.000000000000000e+00
	0.000000000000000e+00,0.000000000000000e+00
	2.617597529941263e-05,1.118705920365006e-13
	2.617597529284770e-05,1.099184927290661e-13
	-7.283074212906780e-08,-6.336640195950596e-14
	2.849151684275282e-05,1.352868842739170e-11
	-1.396052016718872e-05,-5.879752004335062e-14
	-1.445816593343503e-05,-1.340652450538885e-11
	7.283074212907239e-08,6.336640195950872e-14
	-2.849151684274076e-05,-1.352868842739171e-11
	7.283074212907239e-08,6.336640195950872e-14
36		2.290867652767770e+00,0.000000000000000e+00
	7.283074212907239e-04,6.484239507121071e-10
	1.000000000000000e+00,0.000000000000000e+00
	0.000000000000000e+00,0.000000000000000e+00
	2.617597529941263e-05,1.144763928732503e-13
	2.617597529284770e-05,1.124788233317164e-13
	-7.283074212906780e-08,-6.484239507121012e-14
	2.849151684275282e-05,1.384381206249967e-11
	-1.396052016718872e-05,-6.016709022384789e-14
	-1.445816593343504e-05,-1.371880257720461e-11
	7.283074212907239e-08,6.484239507121071e-14
	-2.849151684274076e-05,-1.384381206249967e-11
	7.283074212907239e-08,6.484239507121071e-14
37		2.344228815319919e+00,0.000000000000000e+00
	7.283074212907239e-04,6.635276847907004e-10
	1.000000000000000e+00,0.000000000000000e+00
	0.000000000000000e+00,0.000000000000000e+00
	2.617597529941263e-05,1.171428906087755e-13
	2.617597529284770e-05,1.150987916953304e-13
	-7.283074212906949e-08,-6.635276847906866e-14
	2.849151684275283e-05,1.416627587000768e-11
	-1.396052016718872e-05,-6.156856179198742e-14
	-1.445816593343504e-05,-1.403835453973662e-11
	7.283074212907239e-08,6.635276847907004e-14
	-2.849151684274076e-05,-1.416627587000768e-11
	7.283074212907239e-08,6.635276847907004e-14
38		2.398832919019488e+00,0.000000000000000e+00
	7.283074212907240e-04,6.789832300305968e-10
	1.000000000000000e+00,0.000000000000000e+00
	0.000000000000000e+00,0.000000000000000e+00
	2.617597529941263e-05,1.198714990554709e-13
	2.617597529284770e-05,1.177797869618138e-13
	-7.283074212906949e-08,-6.789832300305795e-14
	2.849151684275283e-05,1.449625082449480e-11
	-1.396052016718872e-05,-6.300267782654530e-14
	-1.445816593343504e-05,-1.436534982366520e-11
	7.283074212907241e-08,6.789832300305968e-14
	-2.849151684274076e-05,-1.449625082449481e-11
	7.283074212907241e-08,6.789832300305968e-14
39		2.454708915685027e+00,0.000000000000000e+00
	7.283074212907240e-04,6.947987811664610e-10
	1.000000000000000e+00,0.000000000000000e+00
	0.000000000000000e+00,0.000000000000000e+00
	2.617597529941263e-05,1.226636649576524e-13
	2.617597529284770e-05,1.205232306303442e-13
	-7.283074212906949e-08,-6.947987811664424e-14
	2.849151684275282e-05,1.483391188304964e-11
	-1.396052016718872e-05,-6.447019871482586e-14
	-1.445816593343504e-05,-1.469996180621816e-11
	7.283074212907241e-08,6.947987811664611e-14
	-2.849151684274076e-05,-1.483391188304964e-11
	7.283074212907241e-08,6.947987811664611e-14
40		2.511886431509577e+00,0.000000000000000e+00
	7.283074212907240e-04,7.109827238128487e-10
	1.000000000000000e+00,0.000000000000000e+00
	0.000000000000000e+00,0.000000000000000e+00
	2.617597529941263e-05,1.255208687586400e-13
	2.617597529284770e-05,1.233305773110684e-13
	-7.283074212906949e-08,-7.109827238128288e-14
	2.849151684275282e-05,1.517943807803490e-11
	-1.396052016718872e-05,-6.597190255582900e-14
	-1.445816593343504e-05,-1.504236790309778e-11
	7.283074212907241e-08,7.109827238128488e-14
	-2.849151684274076e-05,-1.517943807803490e-11
	7.283074212907241e-08,7.109827238128488e-14
41		2.570395782768860e+00,0.000000000000000e+00
	7.283074212907240e-04,7.275436389103707e-10
	1.000000000000000e+00,0.000000000000000e+00
	0.000000000000000e+00,0.000000000000000e+00
	2.617597529941263e-05,1.284446253857085e-13
	2.617597529284770e-05,1.262033154963560e-13
	-7.283074212906949e-08,-7.275436389103603e-14
	2.849151684275282e-05,1.553301261201275e-11
	-1.396052016718872e-05,-6.750858557280857e-14
	-1.445816593343504e-05,-1.539274966254891e-11
	7.283074212907241e-08,7.275436389103708e-14
	-2.849151684274076e-05,-1.553301261201275e-11
	7.283074212907241e-08,7.275436389103708e-14
42		2.630267991895378e+00,0.000000000000000e+00
	7.283074212907241e-04,7.444903072754218e-10
	1.000000000000000e+00,0.000000000000000e+00
	0.000000000000000e+00,0.000000000000000e+00
	2.617597529941263e-05,1.314364850533222e-13
	2.617597529284770e-05,1.291429683500183e-13
	-7.283074212906949e-08,-7.444903072754052e-14
	2.849151684275283e-05,1.589482295488122e-11
	-1.396052016718872e-05,-6.908106253544063e-14
	-1.445816593343504e-05,-1.575129286161824e-11
	7.283074212907241e-08,7.444903072754218e-14
	-2.849151684274076e-05,-1.589482295488122e-11
	7.283074212907241e-08,7.444903072754218e-14
43		2.691534803926912e+00,0.000000000000000e+00
	7.283074212907241e-04,7.618317142558845e-10
	1.000000000000000e+00,0.000000000000000e+00
	0.000000000000000e+00,0.000000000000000e+00
	2.617597529941263e-05,1.344980340850787e-13
	2.617597529284770e-05,1.321510945149089e-13
	-7.283074212906949e-08,-7.618317142559021e-14
	2.849151684275283e-05,1.626506094327322e-11
	-1.396052016718872e-05,-7.069016719182496e-14
	-1.445816593343504e-05,-1.611818760465580e-11
	7.283074212907241e-08,7.618317142558845e-14
	-2.849151684274076e-05,-1.626506094327322e-11
	7.283074212907241e-08,7.618317142558845e-14
44		2.754228703338163e+00,0.000000000000000e+00
	7.283074212907241e-04,7.795770544952803e-10
	1.000000000000000e+00,0.000000000000000e+00
	0.000000000000000e+00,0.000000000000000e+00
	2.617597529941263e-05,1.376308957547991e-13
	2.617597529284770e-05,1.352292889393379e-13
	-7.283074212906949e-08,-7.795770544952897e-14
	2.849151684275283e-05,1.664392288227088e-11
	-1.396052016718872e-05,-7.233675271054936e-14
	-1.445816593343504e-05,-1.649362842411080e-11
	7.283074212907241e-08,7.795770544952803e-14
	-2.849151684274076e-05,-1.664392288227087e-11
	7.283074212907241e-08,7.795770544952803e-14
45		2.818382931264450e+00,0.000000000000000e+00
	7.283074212907242e-04,7.977357368078921e-10
	1.000000000000000e+00,0.000000000000000e+00
	0.000000000000000e+00,0.000000000000000e+00
	2.617597529941263e-05,1.408367311472088e-13
	2.617597529284770e-05,1.383791837227338e-13
	-7.283074212906780e-08,-7.977357368078810e-14
	2.849151684275283e-05,1.703160964948908e-11
	-1.396052016718872e-05,-7.402169213305099e-14
	-1.445816593343504e-05,-1.687781438367524e-11
	7.283074212907242e-08,7.977357368078921e-14
	-2.849151684274076e-05,-1.703160964948908e-11
	7.283074212907242e-08,7.977357368078921e-14
46		2.884031503126602e+00,0.000000000000000e+00
	7.283074212907242e-04,8.163173891674398e-10
	1.000000000000000e+00,0.000000000000000e+00
	0.000000000000000e+00,0.000000000000000e+00
	2.617597529941262e-05,1.441172400386674e-13
	2.617597529284769e-05,1.416024489810044e-13
	-7.283074212906780e-08,-8.163173891674402e-14
	2.849151684275282e-05,1.742832680158344e-11
	-1.396052016718872e-05,-7.574587883651448e-14
	-1.445816593343504e-05,-1.727094918383018e-11
	7.283074212907242e-08,8.163173891674398e-14
	-2.849151684274076e-05,-1.742832680158345e-11
	7.283074212907242e-08,8.163173891674398e-14
47		2.951209226666381e+00,0.000000000000000e+00
	7.283074212907242e-04,8.353318638119624e-10
	1.000000000000000e+00,0.000000000000000e+00
	0.000000000000000e+00,0.000000000000000e+00
	2.617597529941262e-05,1.474741617984117e-13
	2.617597529284769e-05,1.449007937320549e-13
	-7.283074212906949e-08,-8.353318638119538e-14
	2.849151684275283e-05,1.783428468323918e-11
	-1.396052016718872e-05,-7.751022700755236e-14
	-1.445816593343504e-05,-1.767324126985044e-11
	7.283074212907242e-08,8.353318638119625e-14
	-2.849151684274076e-05,-1.783428468323919e-11
	7.283074212907242e-08,8.353318638119625e-14
48		3.019951720402012e+00,0.000000000000000e+00
	7.283074212907243e-04,8.547892424676025e-10
	1.000000000000000e+00,0.000000000000000e+00
	0.000000000000000e+00,0.000000000000000e+00
	2.617597529941262e-05,1.509092763107928e-13
	2.617597529284769e-05,1.482759668019308e-13
	-7.283074212906949e-08,-8.547892424675829e-14
	2.849151684275283e-05,1.824969853869865e-11
	-1.396052016718872e-05,-7.931567212691879e-14
	-1.445816593343504e-05,-1.808490394232497e-11
	7.283074212907243e-08,8.547892424676026e-14
	-2.849151684274076e-05,-1.824969853869866e-11
	7.283074212907243e-08,8.547892424676026e-14
49		3.090295432513586e+00,0.000000000000000e+00
	7.283074212907244e-04,8.746998416940719e-10
	1.000000000000000e+00,0.000000000000000e+00
	0.000000000000000e+00,0.000000000000000e+00