Title: * GA CMOS Amp | W=1e-06 L=6.183538425907534e-07 Vbias=0.9964411476741829
Date: Mon Sep  8 18:47:15 2025
Plotname: Operating Point
Flags: real
No. Variables: 10
No. Points:            1
Offset:    0.0000000000000000e+00
Command: Linear Technology Corporation LTspice
Variables:
	0	V(out)	voltage
	1	V(g)	voltage
	2	V(vdd)	voltage
	3	Id(M1)	device_current
	4	Ig(M1)	device_current
	5	Ib(M1)	device_current
	6	Is(M1)	device_current
	7	I(Rload)	device_current
	8	I(Vg)	device_current
	9	I(Vdd)	device_current
Values:
0		1.788664652833343e+00
	9.964411476741828e-01
	1.800000000000000e+00
	1.133534601913342e-06
	0.000000000000000e+00
	-1.798664652833343e-12
	-1.133532803248689e-06
	-1.133534716665685e-06
	0.000000000000000e+00
	-1.133534716665671e-06
