Title: * Amplificador CMOS – W=3.466159187065566e-05 L=9.760966980016241e-07 Vbias=1.4095540103912825
Date: Wed Jul 30 16:07:22 2025
Plotname: Operating Point
Flags: real
No. Variables: 12
No. Points:            1
Offset:    0.0000000000000000e+00
Command: Linear Technology Corporation LTspice
Variables:
	0	V(out)	voltage
	1	V(in)	voltage
	2	V(bias)	voltage
	3	V(vdd)	voltage
	4	Id(M1)	device_current
	5	Ig(M1)	device_current
	6	Ib(M1)	device_current
	7	Is(M1)	device_current
	8	I(Rload)	device_current
	9	I(Vbias)	device_current
	10	I(Vin)	device_current
	11	I(Vdd)	device_current
Values:
0		1.799999977995540e+00
	0.000000000000000e+00
	1.409554010391282e+00
	1.800000000000000e+00
	2.200445945599799e-12
	0.000000000000000e+00
	-3.229553988386823e-12
	1.029108042787024e-12
	-2.200445958777664e-12
	-1.029108042787025e-12
	0.000000000000000e+00
	-2.200445961509853e-12
