Title: * GA CMOS Amp | W=1.5726248727690128e-05 L=9.811248163105945e-07 Vbias=0.6213178530783067
Date: Mon Sep  8 21:05:29 2025
Plotname: AC Analysis
Flags: complex forward log nocompression
No. Variables: 2
No. Points:         3601
Offset:    0.0000000000000000e+00
Command: Linear Technology Corporation LTspice
Variables:
	0	frequency	frequency
	1	V(out)	voltage
Values:
0		1.000000000000000e+00,0.000000000000000e+00
	-2.101993426576430e-02,2.017630197387128e-10
1		1.005773063001738e+00,0.000000000000000e+00
	-2.101993426576430e-02,2.029278103630854e-10
2		1.011579454259899e+00,0.000000000000000e+00
	-2.101993426576430e-02,2.040993253971162e-10
3		1.017419366180605e+00,0.000000000000000e+00
	-2.101993426576430e-02,2.052776036612461e-10
4		1.023292992280754e+00,0.000000000000000e+00
	-2.101993426576430e-02,2.064626842000283e-10
5		1.029200527194428e+00,0.000000000000000e+00
	-2.101993426576430e-02,2.076546062834231e-10
6		1.035142166679344e+00,0.000000000000000e+00
	-2.101993426576430e-02,2.088534094080984e-10
7		1.041118107623340e+00,0.000000000000000e+00
	-2.101993426576430e-02,2.100591332987392e-10
8		1.047128548050900e+00,0.000000000000000e+00
	-2.101993426576430e-02,2.112718179093633e-10
9		1.053173687129716e+00,0.000000000000000e+00
	-2.101993426576430e-02,2.124915034246459e-10
10		1.059253725177289e+00,0.000000000000000e+00
	-2.101993426576430e-02,2.137182302612505e-10
11		1.065368863667564e+00,0.000000000000000e+00
	-2.101993426576430e-02,2.149520390691686e-10
12		1.071519305237607e+00,0.000000000000000e+00
	-2.101993426576430e-02,2.161929707330671e-10
13		1.077705253694323e+00,0.000000000000000e+00
	-2.101993426576430e-02,2.174410663736421e-10
14		1.083926914021204e+00,0.000000000000000e+00
	-2.101993426576430e-02,2.186963673489823e-10
15		1.090184492385128e+00,0.000000000000000e+00
	-2.101993426576430e-02,2.199589152559392e-10
16		1.096478196143186e+00,0.000000000000000e+00
	-2.101993426576430e-02,2.212287519315058e-10
17		1.102808233849553e+00,0.000000000000000e+00
	-2.101993426576430e-02,2.225059194542023e-10
18		1.109174815262402e+00,0.000000000000000e+00
	-2.101993426576430e-02,2.237904601454712e-10
19		1.115578151350854e+00,0.000000000000000e+00
	-2.101993426576430e-02,2.250824165710790e-10
20		1.122018454301965e+00,0.000000000000000e+00
	-2.101993426576430e-02,2.263818315425273e-10
21		1.128495937527763e+00,0.000000000000000e+00
	-2.101993426576430e-02,2.276887481184713e-10
22		1.135010815672317e+00,0.000000000000000e+00
	-2.101993426576430e-02,2.290032096061461e-10
23		1.141563304618847e+00,0.000000000000000e+00
	-2.101993426576430e-02,2.303252595628027e-10
24		1.148153621496885e+00,0.000000000000000e+00
	-2.101993426576430e-02,2.316549417971505e-10
25		1.154781984689460e+00,0.000000000000000e+00
	-2.101993426576430e-02,2.329923003708095e-10
26		1.161448613840345e+00,0.000000000000000e+00
	-2.101993426576430e-02,2.343373795997701e-10
27		1.168153729861326e+00,0.000000000000000e+00
	-2.101993426576430e-02,2.356902240558618e-10
28		1.174897554939532e+00,0.000000000000000e+00
	-2.101993426576430e-02,2.370508785682301e-10
29		1.181680312544786e+00,0.000000000000000e+00
	-2.101993426576430e-02,2.384193882248219e-10
30		1.188502227437020e+00,0.000000000000000e+00
	-2.101993426576430e-02,2.397957983738797e-10
31		1.195363525673721e+00,0.000000000000000e+00
	-2.101993426576430e-02,2.411801546254442e-10
32		1.202264434617415e+00,0.000000000000000e+00
	-2.101993426576430e-02,2.425725028528659e-10
33		1.209205182943211e+00,0.000000000000000e+00
	-2.101993426576430e-02,2.439728891943249e-10
34		1.216186000646371e+00,0.000000000000000e+00
	-2.101993426576430e-02,2.453813600543598e-10
35		1.223207119049934e+00,0.000000000000000e+00
	-2.101993426576430e-02,2.467979621054058e-10
36		1.230268770812384e+00,0.000000000000000e+00
	-2.101993426576430e-02,2.482227422893409e-10
37		1.237371189935355e+00,0.000000000000000e+00
	-2.101993426576430e-02,2.496557478190416e-10
38		1.244514611771388e+00,0.000000000000000e+00
	-2.101993426576430e-02,2.510970261799469e-10
39		1.251699273031728e+00,0.000000000000000e+00
	-2.101993426576430e-02,2.525466251316330e-10
40		1.258925411794170e+00,0.000000000000000e+00
	-2.101993426576430e-02,2.540045927093942e-10
41		1.266193267510947e+00,0.000000000000000e+00
	-2.101993426576430e-02,2.554709772258364e-10
42		1.273503081016665e+00,0.000000000000000e+00
	-2.101993426576430e-02,2.569458272724768e-10
43		1.280855094536282e+00,0.000000000000000e+00
	-2.101993426576430e-02,2.584291917213546e-10
44		1.288249551693137e+00,0.000000000000000e+00
	-2.101993426576430e-02,2.599211197266502e-10
45		1.295686697517022e+00,0.000000000000000e+00
	-2.101993426576430e-02,2.614216607263145e-10
46		1.303166778452302e+00,0.000000000000000e+00
	-2.101993426576430e-02,2.629308644437066e-10
47		1.310690042366080e+00,0.000000000000000e+00
	-2.101993426576430e-02,2.644487808892417e-10
48		1.318256738556410e+00,0.000000000000000e+00
	-2.101993426576430e-02,2.659754603620482e-10
49		1.325867117760563e+00,0.000000000000000e+00
	-2.101993426576430e-02,2.675109534516346e-10
50		1.333521432163328e+00,0.000000000000000e+00
	-2.101993426576430e-02,2.690553110395660e-10
51		1.341219935405375e+00,0.000000000000000e+00
	-2.101993426576430e-02,2.706085843011497e-10
52		1.348962882591657e+00,0.000000000000000e+00
	-2.101993426576430e-02,2.721708247071314e-10
53		1.356750530299865e+00,0.000000000000000e+00
	-2.101993426576430e-02,2.737420840254008e-10
54		1.364583136588928e+00,0.000000000000000e+00
	-2.101993426576430e-02,2.753224143227066e-10
55		1.372460961007566e+00,0.000000000000000e+00
	-2.101993426576430e-02,2.769118679663822e-10
56		1.380384264602889e+00,0.000000000000000e+00
	-2.101993426576430e-02,2.785104976260812e-10
57		1.388353309929050e+00,0.000000000000000e+00
	-2.101993426576430e-02,2.801183562755221e-10
58		1.396368361055942e+00,0.000000000000000e+00
	-2.101993426576430e-02,2.817354971942441e-10
59		1.404429683577952e+00,0.000000000000000e+00
	-2.101993426576430e-02,2.833619739693725e-10
60		1.412537544622759e+00,0.000000000000000e+00
	-2.101993426576430e-02,2.849978404973946e-10
61		1.420692212860187e+00,0.000000000000000e+00
	-2.101993426576430e-02,2.866431509859454e-10
62		1.428893958511108e+00,0.000000000000000e+00
	-2.101993426576430e-02,2.882979599556041e-10
63		1.437143053356396e+00,0.000000000000000e+00
	-2.101993426576430e-02,2.899623222417004e-10
64		1.445439770745933e+00,0.000000000000000e+00
	-2.101993426576430e-02,2.916362929961321e-10
65		1.453784385607667e+00,0.000000000000000e+00
	-2.101993426576430e-02,2.933199276891921e-10
66		1.462177174456723e+00,0.000000000000000e+00
	-2.101993426576430e-02,2.950132821114071e-10
67		1.470618415404566e+00,0.000000000000000e+00
	-2.101993426576430e-02,2.967164123753859e-10
68		1.479108388168213e+00,0.000000000000000e+00
	-2.101993426576430e-02,2.984293749176788e-10
69		1.487647374079508e+00,0.000000000000000e+00
	-2.101993426576430e-02,3.001522265006480e-10
70		1.496235656094439e+00,0.000000000000000e+00
	-2.101993426576430e-02,3.018850242143482e-10
71		1.504873518802520e+00,0.000000000000000e+00
	-2.101993426576430e-02,3.036278254784189e-10
72		1.513561248436214e+00,0.000000000000000e+00
	-2.101993426576430e-02,3.053806880439866e-10
73		1.522299132880426e+00,0.000000000000000e+00
	-2.101993426576430e-02,3.071436699955787e-10
74		1.531087461682036e+00,0.000000000000000e+00
	-2.101993426576430e-02,3.089168297530482e-10
75		1.539926526059498e+00,0.000000000000000e+00
	-2.101993426576430e-02,3.107002260735099e-10
76		1.548816618912488e+00,0.000000000000000e+00
	-2.101993426576430e-02,3.124939180532867e-10
77		1.557758034831609e+00,0.000000000000000e+00
	-2.101993426576430e-02,3.142979651298683e-10
78		1.566751070108156e+00,0.000000000000000e+00
	-2.101993426576430e-02,3.161124270838812e-10
79		1.575796022743931e+00,0.000000000000000e+00
	-2.101993426576430e-02,3.179373640410688e-10
80		1.584893192461120e+00,0.000000000000000e+00
	-2.101993426576430e-02,3.197728364742845e-10
81		1.594042880712224e+00,0.000000000000000e+00
	-2.101993426576430e-02,3.216189052054951e-10
82		1.603245390690048e+00,0.000000000000000e+00
	-2.101993426576430e-02,3.234756314077965e-10
83		1.612501027337748e+00,0.000000000000000e+00
	-2.101993426576430e-02,3.253430766074408e-10
84		1.621810097358937e+00,0.000000000000000e+00
	-2.101993426576430e-02,3.272213026858749e-10
85		1.631172909227846e+00,0.000000000000000e+00
	-2.101993426576430e-02,3.291103718817913e-10
86		1.640589773199547e+00,0.000000000000000e+00
	-2.101993426576430e-02,3.310103467931905e-10
87		1.650061001320235e+00,0.000000000000000e+00
	-2.101993426576430e-02,3.329212903794548e-10
88		1.659586907437568e+00,0.000000000000000e+00
	-2.101993426576430e-02,3.348432659634354e-10
89		1.669167807211066e+00,0.000000000000000e+00
	-2.101993426576430e-02,3.367763372335502e-10
90		1.678804018122569e+00,0.000000000000000e+00
	-2.101993426576430e-02,3.387205682458941e-10
91		1.688495859486762e+00,0.000000000000000e+00
	-2.101993426576430e-02,3.406760234263623e-10
92		1.698243652461753e+00,0.000000000000000e+00
	-2.101993426576430e-02,3.426427675727844e-10
93		1.708047720059717e+00,0.000000000000000e+00
	-2.101993426576430e-02,3.446208658570720e-10
94		1.717908387157597e+00,0.000000000000000e+00
	-2.101993426576430e-02,3.466103838273785e-10
95		1.727825980507873e+00,0.000000000000000e+00
	-2.101993426576430e-02,3.486113874102707e-10
96		1.737800828749385e+00,0.000000000000000e+00
	-2.101993426576430e-02,3.506239429129135e-10
97		1.747833262418228e+00,0.000000000000000e+00
	-2.101993426576430e-02,3.526481170252678e-10
98		1.757923613958702e+00,0.000000000000000e+00
	-2.101993426576430e-02,3.546839768222990e-10
99		1.768072217734330e+00,0.000000000000000e+00
	-2.101993426576430e-02,3.567315897662012e-10
100		1.778279410038933e+00,0.000000000000000e+00
	-2.101993426576430e-02,3.587910237086318e-10
101		1.788545529107782e+00,0.000000000000000e+00
	-2.101993426576430e-02,3.608623468929599e-10
102		1.798870915128798e+00,0.000000000000000e+00
	-2.101993426576430e-02,3.629456279565280e-10
103		1.809255910253831e+00,0.000000000000000e+00
	-2.101993426576430e-02,3.650409359329266e-10
104		1.819700858609994e+00,0.000000000000000e+00
	-2.101993426576430e-02,3.671483402542809e-10
105		1.830206106311067e+00,0.000000000000000e+00
	-2.101993426576430e-02,3.692679107535525e-10
106		1.840772001468967e+00,0.000000000000000e+00
	-2.101993426576430e-02,3.713997176668530e-10
107		1.851398894205283e+00,0.000000000000000e+00
	-2.101993426576430e-02,3.735438316357716e-10
108		1.862087136662879e+00,0.000000000000000e+00
	-2.101993426576430e-02,3.757003237097157e-10
109		1.872837083017560e+00,0.000000000000000e+00
	-2.101993426576430e-02,3.778692653482653e-10
110		1.883649089489812e+00,0.000000000000000e+00
	-2.101993426576430e-02,3.800507284235414e-10
111		1.894523514356604e+00,0.000000000000000e+00
	-2.101993426576430e-02,3.822447852225869e-10
112		1.905460717963259e+00,0.000000000000000e+00
	-2.101993426576430e-02,3.844515084497629e-10
113		1.916461062735399e+00,0.000000000000000e+00
	-2.101993426576430e-02,3.866709712291568e-10
114		1.927524913190948e+00,0.000000000000000e+00
	-2.101993426576430e-02,3.889032471070059e-10
115		1.938652635952220e+00,0.000000000000000e+00
	-2.101993426576430e-02,3.911484100541353e-10
116		1.949844599758058e+00,0.000000000000000e+00
	-2.101993426576430e-02,3.934065344684076e-10
117		1.961101175476061e+00,0.000000000000000e+00
	-2.101993426576430e-02,3.956776951771892e-10
118		1.972422736114867e+00,0.000000000000000e+00
	-2.101993426576430e-02,3.979619674398298e-10
119		1.983809656836519e+00,0.000000000000000e+00
	-2.101993426576430e-02,4.002594269501556e-10
120		1.995262314968893e+00,0.000000000000000e+00
	-2.101993426576430e-02,4.025701498389785e-10
121		2.006781090018203e+00,0.000000000000000e+00
	-2.101993426576430e-02,4.048942126766182e-10
122		2.018366363681575e+00,0.000000000000000e+00
	-2.101993426576430e-02,4.072316924754396e-10
123		2.030018519859698e+00,0.000000000000000e+00
	-2.101993426576430e-02,4.095826666924048e-10
124		2.041737944669544e+00,0.000000000000000e+00
	-2.101993426576430e-02,4.119472132316401e-10
125		2.053525026457161e+00,0.000000000000000e+00
	-2.101993426576430e-02,4.143254104470169e-10
126		2.065380155810544e+00,0.000000000000000e+00
	-2.101993426576430e-02,4.167173371447485e-10
127		2.077303725572579e+00,0.000000000000000e+00
	-2.101993426576430e-02,4.191230725860018e-10
128		2.089296130854055e+00,0.000000000000000e+00
	-2.101993426576430e-02,4.215426964895229e-10
129		2.101357769046763e+00,0.000000000000000e+00
	-2.101993426576430e-02,4.239762890342795e-10
130		2.113489039836662e+00,0.000000000000000e+00
	-2.101993426576430e-02,4.264239308621176e-10
131		2.125690345217123e+00,0.000000000000000e+00
	-2.101993426576430e-02,4.288857030804335e-10
132		2.137962089502248e+00,0.000000000000000e+00
	-2.101993426576430e-02,4.313616872648617e-10
133		2.150304679340273e+00,0.000000000000000e+00
	-2.101993426576430e-02,4.338519654619780e-10
134		2.162718523727037e+00,0.000000000000000e+00
	-2.101993426576430e-02,4.363566201920178e-10
135		2.175204034019540e+00,0.000000000000000e+00
	-2.101993426576430e-02,4.388757344516120e-10
136		2.187761623949570e+00,0.000000000000000e+00
	-2.101993426576430e-02,4.414093917165354e-10
137		2.200391709637416e+00,0.000000000000000e+00
	-2.101993426576430e-02,4.439576759444739e-10
138		2.213094709605655e+00,0.000000000000000e+00
	-2.101993426576430e-02,4.465206715778067e-10
139		2.225871044793023e+00,0.000000000000000e+00
	-2.101993426576430e-02,4.490984635464039e-10
140		2.238721138568358e+00,0.000000000000000e+00
	-2.101993426576430e-02,4.516911372704412e-10
141		2.251645416744636e+00,0.000000000000000e+00
	-2.101993426576430e-02,4.542987786632302e-10
142		2.264644307593079e+00,0.000000000000000e+00
	-2.101993426576430e-02,4.569214741340659e-10
143		2.277718241857341e+00,0.000000000000000e+00
	-2.101993426576430e-02,4.595593105910890e-10
144		2.290867652767792e+00,0.000000000000000e+00
	-2.101993426576430e-02,4.622123754441667e-10
145		2.304092976055865e+00,0.000000000000000e+00
	-2.101993426576430e-02,4.648807566077890e-10
146		2.317394649968498e+00,0.000000000000000e+00
	-2.101993426576430e-02,4.675645425039815e-10
147		2.330773115282658e+00,0.000000000000000e+00
	-2.101993426576430e-02,4.702638220652359e-10
148		2.344228815319942e+00,0.000000000000000e+00
	-2.101993426576430e-02,4.729786847374568e-10
149		2.357762195961275e+00,0.000000000000000e+00
	-2.101993426576430e-02,4.757092204829256e-10
150		2.371373705661676e+00,0.000000000000000e+00
	-2.101993426576430e-02,4.784555197832813e-10
151		2.385063795465127e+00,0.000000000000000e+00
	-2.101993426576430e-02,4.812176736425196e-10
152		2.398832919019512e+00,0.000000000000000e+00
	-2.101993426576430e-02,4.839957735900079e-10
153		2.412681532591656e+00,0.000000000000000e+00
	-2.101993426576430e-02,4.867899116835180e-10
154		2.426610095082438e+00,0.000000000000000e+00
	-2.101993426576430e-02,4.896001805122777e-10
155		2.440619068042003e+00,0.000000000000000e+00
	-2.101993426576430e-02,4.924266732000375e-10
156		2.454708915685053e+00,0.000000000000000e+00
	-2.101993426576430e-02,4.952694834081577e-10
157		2.468880104906232e+00,0.000000000000000e+00
	-2.101993426576430e-02,4.981287053387114e-10
158		2.483133105295594e+00,0.000000000000000e+00
	-2.101993426576430e-02,5.010044337376061e-10
159		2.497468389154167e+00,0.000000000000000e+00
	-2.101993426576430e-02,5.038967638977234e-10
160		2.511886431509604e+00,0.000000000000000e+00
	-2.101993426576430e-02,5.068057916620772e-10
161		2.526387710131921e+00,0.000000000000000e+00
	-2.101993426576430e-02,5.097316134269882e-10
162		2.540972705549330e+00,0.000000000000000e+00
	-2.101993426576430e-02,5.126743261452798e-10
163		2.555641901064163e+00,0.000000000000000e+00
	-2.101993426576430e-02,5.156340273294903e-10
164		2.570395782768889e+00,0.000000000000000e+00
	-2.101993426576430e-02,5.186108150551034e-10
165		2.585234839562216e+00,0.000000000000000e+00
	-2.101993426576430e-02,5.216047879637994e-10
166		2.600159563165298e+00,0.000000000000000e+00
	-2.101993426576430e-02,5.246160452667228e-10
167		2.615170448138023e+00,0.000000000000000e+00
	-2.101993426576430e-02,5.276446867477703e-10
168		2.630267991895408e+00,0.000000000000000e+00
	-2.101993426576430e-02,5.306908127668976e-10
169		2.645452694724076e+00,0.000000000000000e+00
	-2.101993426576430e-02,5.337545242634446e-10
170		2.660725059798836e+00,0.000000000000000e+00
	-2.101993426576430e-02,5.368359227594803e-10
171		2.676085593199359e+00,0.000000000000000e+00
	-2.101993426576430e-02,5.399351103631673e-10
172		2.691534803926943e+00,0.000000000000000e+00
	-2.101993426576430e-02,5.430521897721443e-10
173		2.707073203921385e+00,0.000000000000000e+00
	-2.101993426576430e-02,5.461872642769307e-10
174		2.722701308077940e+00,0.000000000000000e+00
	-2.101993426576430e-02,5.493404377643485e-10
175		2.738419634264389e+00,0.000000000000000e+00
	-2.101993426576430e-02,5.525118147209646e-10
176		2.754228703338195e+00,0.000000000000000e+00
	-2.101993426576430e-02,5.557015002365535e-10
177		2.770129039163762e+00,0.000000000000000e+00
	-2.101993426576430e-02,5.589096000075795e-10
178		2.786121168629800e+00,0.000000000000000e+00
	-2.101993426576430e-02,5.621362203406998e-10
179		2.802205621666776e+00,0.000000000000000e+00
	-2.101993426576430e-02,5.653814681562858e-10
180		2.818382931264483e+00,0.000000000000000e+00
	-2.101993426576430e-02,5.686454509919672e-10
181		2.834653633489697e+00,0.000000000000000e+00
	-2.101993426576430e-02,5.719282770061957e-10
182		2.851018267503939e+00,0.000000000000000e+00
	-2.101993426576430e-02,5.752300549818280e-10
183		2.867477375581346e+00,0.000000000000000e+00
	-2.101993426576430e-02,5.785508943297315e-10
184		2.884031503126637e+00,0.000000000000000e+00
	-2.101993426576430e-02,5.818909050924090e-10
185		2.900681198693185e+00,0.000000000000000e+00
	-2.101993426576430e-02,5.852501979476461e-10
186		2.917427014001198e+00,0.000000000000000e+00
	-2.101993426576430e-02,5.886288842121776e-10
187		2.934269503956000e+00,0.000000000000000e+00
	-2.101993426576430e-02,5.920270758453774e-10
188		2.951209226666418e+00,0.000000000000000e+00
	-2.101993426576430e-02,5.954448854529677e-10
189		2.968246743463274e+00,0.000000000000000e+00
	-2.101993426576430e-02,5.988824262907507e-10
190		2.985382618917992e+00,0.000000000000000e+00
	-2.101993426576430e-02,6.023398122683609e-10
191		3.002617420861300e+00,0.000000000000000e+00
	-2.101993426576430e-02,6.058171579530414e-10
192		3.019951720402049e+00,0.000000000000000e+00
	-2.101993426576430e-02,6.093145785734382e-10
193		3.037386091946138e+00,0.000000000000000e+00
	-2.101993426576430e-02,6.128321900234205e-10
194		3.054921113215547e+00,0.000000000000000e+00
	-2.101993426576430e-02,6.163701088659189e-10
195		3.072557365267481e+00,0.000000000000000e+00
	-2.101993426576430e-02,6.199284523367901e-10
196		3.090295432513625e+00,0.000000000000000e+00
	-2.101993426576430e-02,6.235073383487005e-10
197		3.108135902739511e+00,0.000000000000000e+00
	-2.101993426576430e-02,6.271068854950338e-10
198		3.126079367123991e+00,0.000000000000000e+00
	-2.101993426576430e-02,6.307272130538206e-10
199		3.144126420258832e+00,0.000000000000000e+00
	-2.101993426576430e-02,6.343684409916910e-10
200		3.162277660168416e+00,0.000000000000000e+00
	-2.101993426576430e-02,6.380306899678506e-10
201		3.180533688329558e+00,0.000000000000000e+00
	-2.101993426576430e-02,6.417140813380777e-10
202		3.198895109691435e+00,0.000000000000000e+00
	-2.101993426576430e-02,6.454187371587448e-10
203		3.217362532695637e+00,0.000000000000000e+00
	-2.101993426576430e-02,6.491447801908647e-10
204		3.235936569296321e+00,0.000000000000000e+00
	-2.101993426576430e-02,6.528923339041562e-10
205		3.254617834980497e+00,0.000000000000000e+00
	-2.101993426576430e-02,6.566615224811367e-10
206		3.273406948788421e+00,0.000000000000000e+00
	-2.101993426576430e-02,6.604524708212378e-10
207		3.292304533334104e+00,0.000000000000000e+00
	-2.101993426576430e-02,6.642653045449424e-10
208		3.311311214825951e+00,0.000000000000000e+00
	-2.101993426576430e-02,6.681001499979494e-10
209		3.330427623087504e+00,0.000000000000000e+00
	-2.101993426576430e-02,6.719571342553583e-10
210		3.349654391578317e+00,0.000000000000000e+00
	-2.101993426576430e-02,6.758363851258820e-10
211		3.368992157414949e+00,0.000000000000000e+00
	-2.101993426576430e-02,6.797380311560809e-10
212		3.388441561392067e+00,0.000000000000000e+00
	-2.101993426576430e-02,6.836622016346226e-10
213		3.408003248003692e+00,0.000000000000000e+00
	-2.101993426576430e-02,6.876090265965662e-10
214		3.427677865464546e+00,0.000000000000000e+00
	-2.101993426576430e-02,6.915786368276721e-10
215		3.447466065731537e+00,0.000000000000000e+00
	-2.101993426576430e-02,6.955711638687347e-10
216		3.467368504525360e+00,0.000000000000000e+00
	-2.101993426576430e-02,6.995867400199412e-10
217		3.487385841352228e+00,0.000000000000000e+00
	-2.101993426576430e-02,7.036254983452570e-10
218		3.507518739525725e+00,0.000000000000000e+00
	-2.101993426576430e-02,7.076875726768339e-10
219		3.527767866188785e+00,0.000000000000000e+00
	-2.101993426576430e-02,7.117730976194445e-10
220		3.548133892335800e+00,0.000000000000000e+00
	-2.101993426576430e-02,7.158822085549438e-10
221		3.568617492834858e+00,0.000000000000000e+00
	-2.101993426576430e-02,7.200150416467551e-10
222		3.589219346450099e+00,0.000000000000000e+00
	-2.101993426576430e-02,7.241717338443810e-10
223		3.609940135864213e+00,0.000000000000000e+00
	-2.101993426576430e-02,7.283524228879427e-10
224		3.630780547701061e+00,0.000000000000000e+00
	-2.101993426576430e-02,7.325572473127437e-10
225		3.651741272548425e+00,0.000000000000000e+00
	-2.101993426576430e-02,7.367863464538599e-10
226		3.672823004980895e+00,0.000000000000000e+00
	-2.101993426576430e-02,7.410398604507588e-10
227		3.694026443582883e+00,0.000000000000000e+00
	-2.101993426576430e-02,7.453179302519402e-10
228		3.715352290971774e+00,0.000000000000000e+00
	-2.101993426576430e-02,7.496206976196099e-10
229		3.736801253821207e+00,0.000000000000000e+00
	-2.101993426576430e-02,7.539483051343749e-10
230		3.758374042884492e+00,0.000000000000000e+00
	-2.101993426576430e-02,7.583008961999695e-10
231		3.780071373018162e+00,0.000000000000000e+00
	-2.101993426576430e-02,7.626786150480066e-10
232		3.801893963205663e+00,0.000000000000000e+00
	-2.101993426576430e-02,7.670816067427572e-10
233		3.823842536581178e+00,0.000000000000000e+00
	-2.101993426576430e-02,7.715100171859578e-10
234		3.845917820453588e+00,0.000000000000000e+00
	-2.101993426576430e-02,7.759639931216446e-10
235		3.868120546330575e+00,0.000000000000000e+00
	-2.101993426576430e-02,7.804436821410162e-10
236		3.890451449942860e+00,0.000000000000000e+00
	-2.101993426576430e-02,7.849492326873250e-10
237		3.912911271268584e+00,0.000000000000000e+00
	-2.101993426576430e-02,7.894807940607950e-10
238		3.935500754557829e+00,0.000000000000000e+00
	-2.101993426576430e-02,7.940385164235704e-10
239		3.958220648357280e+00,0.000000000000000e+00
	-2.101993426576430e-02,7.986225508046905e-10
240		3.981071705535028e+00,0.000000000000000e+00
	-2.101993426576430e-02,8.032330491050948e-10
241		4.004054683305520e+00,0.000000000000000e+00
	-2.101993426576430e-02,8.078701641026569e-10
242		4.027170343254648e+00,0.000000000000000e+00
	-2.101993426576430e-02,8.125340494572462e-10
243		4.050419451364989e+00,0.000000000000000e+00
	-2.101993426576430e-02,8.172248597158203e-10
244		4.073802778041185e+00,0.000000000000000e+00
	-2.101993426576430e-02,8.219427503175467e-10
245		4.097321098135473e+00,0.000000000000000e+00
	-2.101993426576430e-02,8.266878775989519e-10
246		4.120975190973360e+00,0.000000000000000e+00
	-2.101993426576430e-02,8.314603987991038e-10
247		4.144765840379450e+00,0.000000000000000e+00
	-2.101993426576430e-02,8.362604720648214e-10
248		4.168693834703413e+00,0.000000000000000e+00
	-2.101993426576430e-02,8.410882564559151e-10
249		4.192759966846114e+00,0.000000000000000e+00
	-2.101993426576430e-02,8.459439119504573e-10
250		4.216965034285883e+00,0.000000000000000e+00
	-2.101993426576430e-02,8.508275994500841e-10
251		4.241309839104942e+00,0.000000000000000e+00
	-2.101993426576430e-02,8.557394807853273e-10
252		4.265795188015987e+00,0.000000000000000e+00
	-2.101993426576430e-02,8.606797187209758e-10
253		4.290421892388916e+00,0.000000000000000e+00
	-2.101993426576430e-02,8.656484769614705e-10
254		4.315190768277715e+00,0.000000000000000e+00
	-2.101993426576430e-02,8.706459201563276e-10
255		4.340102636447502e+00,0.000000000000000e+00
	-2.101993426576430e-02,8.756722139055966e-10
256		4.365158322401724e+00,0.000000000000000e+00
	-2.101993426576430e-02,8.807275247653454e-10
257		4.390358656409512e+00,0.000000000000000e+00
	-2.101993426576430e-02,8.858120202531808e-10
258		4.415704473533191e+00,0.000000000000000e+00
	-2.101993426576430e-02,8.909258688537997e-10
259		4.441196613655956e+00,0.000000000000000e+00
	-2.101993426576430e-02,8.960692400245711e-10
260		4.466835921509698e+00,0.000000000000000e+00
	-2.101993426576430e-02,9.012423042011525e-10
261		4.492623246703002e+00,0.000000000000000e+00
	-2.101993426576430e-02,9.064452328031377e-10
262		4.518559443749292e+00,0.000000000000000e+00
	-2.101993426576430e-02,9.116781982397355e-10
263		4.544645372095157e+00,0.000000000000000e+00
	-2.101993426576430e-02,9.169413739154848e-10
264		4.570881896148820e+00,0.000000000000000e+00
	-2.101993426576430e-02,9.222349342359991e-10
265		4.597269885308792e+00,0.000000000000000e+00
	-2.101993426576430e-02,9.275590546137478e-10
266		4.623810213992674e+00,0.000000000000000e+00
	-2.101993426576430e-02,9.329139114738657e-10
267		4.650503761666135e+00,0.000000000000000e+00
	-2.101993426576430e-02,9.382996822600024e-10
268		4.677351412872055e+00,0.000000000000000e+00
	-2.101993426576430e-02,9.437165454402004e-10
269		4.704354057259835e+00,0.000000000000000e+00
	-2.101993426576430e-02,9.491646805128096e-10
270		4.731512589614879e+00,0.000000000000000e+00
	-2.101993426576430e-02,9.546442680124348e-10
271		4.758827909888244e+00,0.000000000000000e+00
	-2.101993426576430e-02,9.601554895159191e-10
272		4.786300923226460e+00,0.000000000000000e+00
	-2.101993426576430e-02,9.656985276483594e-10
273		4.813932540001524e+00,0.000000000000000e+00
	-2.101993426576430e-02,9.712735660891592e-10
274		4.841723675841071e+00,0.000000000000000e+00
	-2.101993426576430e-02,9.768807895781152e-10
275		4.869675251658710e+00,0.000000000000000e+00
	-2.101993426576430e-02,9.825203839215376e-10
276		4.897788193684542e+00,0.000000000000000e+00
	-2.101993426576430e-02,9.881925359984085e-10
277		4.926063433495853e+00,0.000000000000000e+00
	-2.101993426576430e-02,9.938974337665750e-10
278		4.954501908047983e+00,0.000000000000000e+00
	-2.101993426576430e-02,9.996352662689753e-10
279		4.983104559705377e+00,0.000000000000000e+00
	-2.101993426576430e-02,1.005406223639906e-09
280		5.011872336272805e+00,0.000000000000000e+00
	-2.101993426576430e-02,1.011210497111318e-09
281		5.040806191026777e+00,0.000000000000000e+00
	-2.101993426576430e-02,1.017048279019161e-09
282		5.069907082747127e+00,0.000000000000000e+00
	-2.101993426576430e-02,1.022919762809748e-09
283		5.099175975748786e+00,0.000000000000000e+00
	-2.101993426576430e-02,1.028825143046172e-09
284		5.128613839913734e+00,0.000000000000000e+00
	-2.101993426576430e-02,1.034764615414750e-09
285		5.158221650723143e+00,0.000000000000000e+00
	-2.101993426576430e-02,1.040738376731509e-09
286		5.188000389289698e+00,0.000000000000000e+00
	-2.101993426576430e-02,1.046746624948707e-09
287		5.217951042390110e+00,0.000000000000000e+00
	-2.101993426576430e-02,1.052789559161393e-09
288		5.248074602497814e+00,0.000000000000000e+00
	-2.101993426576430e-02,1.058867379614004e-09
289		5.278372067815857e+00,0.000000000000000e+00
	-2.101993426576430e-02,1.064980287707001e-09
290		5.308844442309973e+00,0.000000000000000e+00
	-2.101993426576430e-02,1.071128486003543e-09
291		5.339492735741857e+00,0.000000000000000e+00
	-2.101993426576430e-02,1.077312178236198e-09
292		5.370317963702618e+00,0.000000000000000e+00
	-2.101993426576430e-02,1.083531569313695e-09
293		5.401321147646440e+00,0.000000000000000e+00
	-2.101993426576430e-02,1.089786865327715e-09
294		5.432503314924425e+00,0.000000000000000e+00
	-2.101993426576430e-02,1.096078273559719e-09
295		5.463865498818635e+00,0.000000000000000e+00
	-2.101993426576430e-02,1.102406002487816e-09
296		5.495408738576340e+00,0.000000000000000e+00
	-2.101993426576430e-02,1.108770261793673e-09
297		5.527134079444444e+00,0.000000000000000e+00
	-2.101993426576430e-02,1.115171262369462e-09
298		5.559042572704132e+00,0.000000000000000e+00
	-2.101993426576430e-02,1.121609216324848e-09
299		5.591135275705699e+00,0.000000000000000e+00
	-2.101993426576430e-02,1.128084336994022e-09
300		5.623413251903589e+00,0.000000000000000e+00
	-2.101993426576430e-02,1.134596838942763e-09
301		5.655877570891638e+00,0.000000000000000e+00
	-2.101993426576430e-02,1.141146937975553e-09
302		5.688529308438514e+00,0.000000000000000e+00
	-2.101993426576430e-02,1.147734851142726e-09
303		5.721369546523364e+00,0.000000000000000e+00
	-2.101993426576430e-02,1.154360796747664e-09
304		5.754399373371671e+00,0.000000000000000e+00
	-2.101993426576430e-02,1.161024994354025e-09
305		5.787619883491309e+00,0.000000000000000e+00
	-2.101993426576430e-02,1.167727664793023e-09
306		5.821032177708817e+00,0.000000000000000e+00
	-2.101993426576430e-02,1.174469030170746e-09
307		5.854637363205876e+00,0.000000000000000e+00
	-2.101993426576430e-02,1.181249313875513e-09
308		5.888436553555995e+00,0.000000000000000e+00
	-2.101993426576430e-02,1.188068740585276e-09
309		5.922430868761412e+00,0.000000000000000e+00
	-2.101993426576430e-02,1.194927536275071e-09
310		5.956621435290212e+00,0.000000000000000e+00
	-2.101993426576430e-02,1.201825928224499e-09
311		5.991009386113647e+00,0.000000000000000e+00
	-2.101993426576430e-02,1.208764145025262e-09
312		6.025595860743686e+00,0.000000000000000e+00
	-2.101993426576430e-02,1.215742416588734e-09