Title: * GA CMOS Amp | W=2.9278980976867432e-05 L=9.400813394938405e-07 Vbias=0.56891111607318
Date: Sat Sep  6 22:36:38 2025
Plotname: AC Analysis
Flags: complex forward log
No. Variables: 13
No. Points:          901
Offset:    0.0000000000000000e+00
Command: Linear Technology Corporation LTspice
Variables:
	0	frequency	frequency
	1	V(out)	voltage
	2	V(g)	voltage
	3	V(vdd)	voltage
	4	V(m1#dbody)	voltage
	5	V(m1#sbody)	voltage
	6	Id(M1)	device_current
	7	Ig(M1)	device_current
	8	Ib(M1)	device_current
	9	Is(M1)	device_current
	10	I(Rload)	device_current
	11	I(Vg)	device_current
	12	I(Vdd)	device_current
Values:
0		1.000000000000000e+00,0.000000000000000e+00
	-1.821220168021075e-01,1.791178692113598e-09
	1.000000000000000e+00,0.000000000000000e+00
	0.000000000000000e+00,0.000000000000000e+00
	4.916689450308526e-09,-3.592681378773746e-14
	4.918079098611548e-09,8.655385690288933e-14
	1.821220168021076e-05,-1.791178692113599e-13
	1.326101665238800e-06,6.551773537074747e-12
	-2.622882878022975e-09,-3.799668116291171e-14
	-1.953568046257154e-05,-6.334658986700475e-12
	-1.821220168021075e-05,1.791178692113598e-13
	-1.326101665199975e-06,-6.551773537074747e-12
	-1.821220168021075e-05,1.791178692113598e-13
1		1.023292992280754e+00,0.000000000000000e+00
	-1.821220168021075e-01,1.832900603562452e-09
	1.000000000000000e+00,0.000000000000000e+00
	0.000000000000000e+00,0.000000000000000e+00
	4.916689450308244e-09,-3.676365678396735e-14
	4.918079098611324e-09,8.856995522359777e-14
	1.821220168021076e-05,-1.832900603562457e-13
	1.326101665238800e-06,6.704383947499078e-12
	-2.622882878022852e-09,-3.888173756393366e-14
	-1.953568046257154e-05,-6.482212149578899e-12
	-1.821220168021075e-05,1.832900603562452e-13
	-1.326101665199975e-06,-6.704383947499078e-12
	-1.821220168021075e-05,1.832900603562452e-13
2		1.047128548050899e+00,0.000000000000000e+00
	-1.821220168021075e-01,1.875594343172621e-09
	1.000000000000000e+00,0.000000000000000e+00
	0.000000000000000e+00,0.000000000000000e+00
	4.916689450307950e-09,-3.761999235764860e-14
	4.918079098611089e-09,9.063301450692781e-14
	1.821220168021076e-05,-1.875594343172624e-13
	1.326101665238800e-06,6.860549111035385e-12
	-2.622882878022722e-09,-3.978740957687269e-14
	-1.953568046257154e-05,-6.633202267141250e-12
	-1.821220168021075e-05,1.875594343172622e-13
	-1.326101665199975e-06,-6.860549111035386e-12
	-1.821220168021075e-05,1.875594343172622e-13
3		1.071519305237606e+00,0.000000000000000e+00
	-1.821220168021075e-01,1.919282547729967e-09
	1.000000000000000e+00,0.000000000000000e+00
	0.000000000000000e+00,0.000000000000000e+00
	4.916689450307641e-09,-3.849627454923738e-14
	4.918079098610842e-09,9.274412861421907e-14
	1.821220168021076e-05,-1.919282547729971e-13
	1.326101665238800e-06,7.020351828520465e-12
	-2.622882878022587e-09,-4.071417740101795e-14
	-1.953568046257154e-05,-6.787709396346451e-12
	-1.821220168021075e-05,1.919282547729967e-13
	-1.326101665199975e-06,-7.020351828520467e-12
	-1.821220168021075e-05,1.919282547729967e-13
4		1.096478196143185e+00,0.000000000000000e+00
	-1.821220168021075e-01,1.963988381298827e-09
	1.000000000000000e+00,0.000000000000000e+00
	0.000000000000000e+00,0.000000000000000e+00
	4.916689450307319e-09,-3.939296797515068e-14
	4.918079098610585e-09,9.490441688611518e-14
	1.821220168021076e-05,-1.963988381298827e-13
	1.326101665238800e-06,7.183876829470370e-12
	-2.622882878022446e-09,-4.166253242093704e-14
	-1.953568046257154e-05,-6.945815458919551e-12
	-1.821220168021075e-05,1.963988381298827e-13
	-1.326101665199975e-06,-7.183876829470371e-12
	-1.821220168021075e-05,1.963988381298827e-13
5		1.122018454301963e+00,0.000000000000000e+00
	-1.821220168021075e-01,2.009735547503912e-09
	1.000000000000000e+00,0.000000000000000e+00
	0.000000000000000e+00,0.000000000000000e+00
	4.916689450306981e-09,-4.031054807411183e-14
	4.918079098610315e-09,9.711502473605305e-14
	1.821220168021076e-05,-2.009735547503918e-13
	1.326101665238799e-06,7.351210817005113e-12
	-2.622882878022297e-09,-4.263297746701465e-14
	-1.953568046257154e-05,-7.107604284787707e-12
	-1.821220168021075e-05,2.009735547503912e-13
	-1.326101665199975e-06,-7.351210817005113e-12
	-1.821220168021075e-05,2.009735547503912e-13
6		1.148153621496882e+00,0.000000000000000e+00
	-1.821220168021075e-01,2.056548302098277e-09
	1.000000000000000e+00,0.000000000000000e+00
	0.000000000000000e+00,0.000000000000000e+00
	4.916689450306626e-09,-4.124950135923498e-14
	4.918079098610032e-09,9.937712425757522e-14
	1.821220168021076e-05,-2.056548302098283e-13
	1.326101665238799e-06,7.522442513819810e-12
	-2.622882878022141e-09,-4.362602708205940e-14
	-1.953568046257154e-05,-7.273161656527923e-12
	-1.821220168021075e-05,2.056548302098278e-13
	-1.326101665199975e-06,-7.522442513819811e-12
	-1.821220168021075e-05,2.056548302098278e-13
7		1.174897554939529e+00,0.000000000000000e+00
	-1.821220168021075e-01,2.104451465824050e-09
	1.000000000000000e+00,0.000000000000000e+00
	0.000000000000000e+00,0.000000000000000e+00
	4.916689450306255e-09,-4.221032567598067e-14
	4.918079098609735e-09,1.016919148457904e-13
	1.821220168021076e-05,-2.104451465824050e-13
	1.326101665238799e-06,7.697662709226631e-12
	-2.622882878021978e-09,-4.464220779412174e-14
	-1.953568046257154e-05,-7.442575354850103e-12
	-1.821220168021075e-05,2.104451465824051e-13
	-1.326101665199975e-06,-7.697662709226631e-12
	-1.821220168021075e-05,2.104451465824051e-13
8		1.202264434617413e+00,0.000000000000000e+00
	-1.821220168021075e-01,2.153470437572712e-09
	1.000000000000000e+00,0.000000000000000e+00
	0.000000000000000e+00,0.000000000000000e+00
	4.916689450305867e-09,-4.319353046611920e-14
	4.918079098609426e-09,1.040606238333087e-13
	1.821220168021076e-05,-2.153470437572709e-13
	1.326101665238799e-06,7.876964307292495e-12
	-2.622882878021808e-09,-4.568205839566618e-14
	-1.953568046257154e-05,-7.615935205139559e-12
	-1.821220168021075e-05,2.153470437572712e-13
	-1.326101665199975e-06,-7.876964307292497e-12
	-1.821220168021075e-05,2.153470437572712e-13
9		1.230268770812381e+00,0.000000000000000e+00
	-1.821220168021075e-01,2.203631207851925e-09
	1.000000000000000e+00,0.000000000000000e+00
	0.000000000000000e+00,0.000000000000000e+00
	4.916689450305460e-09,-4.419963703784500e-14
	4.918079098609101e-09,1.064845071409885e-13
	1.821220168021076e-05,-2.203631207851923e-13
	1.326101665238799e-06,8.060442376098034e-12
	-2.622882878021629e-09,-4.674613022924539e-14
	-1.953568046257154e-05,-7.793333125083596e-12
	-1.821220168021075e-05,2.203631207851925e-13
	-1.326101665199975e-06,-8.060442376098037e-12
	-1.821220168021075e-05,2.203631207851925e-13
10		1.258925411794167e+00,0.000000000000000e+00
	-1.821220168021075e-01,2.254960372566050e-09
	1.000000000000000e+00,0.000000000000000e+00
	0.000000000000000e+00,0.000000000000000e+00
	4.916689450305034e-09,-4.522917884217995e-14
	4.918079098608761e-09,1.089648499438431e-13
	1.821220168021076e-05,-2.254960372566041e-13
	1.326101665238799e-06,8.248194198143949e-12
	-2.622882878021442e-09,-4.783498747983018e-14
	-1.953568046257154e-05,-7.974863173407515e-12
	-1.821220168021075e-05,2.254960372566050e-13
	-1.326101665199975e-06,-8.248194198143951e-12
	-1.821220168021075e-05,2.254960372566050e-13
11		1.288249551693134e+00,0.000000000000000e+00
	-1.821220168021075e-01,2.307485147117637e-09
	1.000000000000000e+00,0.000000000000000e+00
	0.000000000000000e+00,0.000000000000000e+00
	4.916689450304588e-09,-4.628270175581548e-14
	4.918079098608405e-09,1.115029673524589e-13
	1.821220168021076e-05,-2.307485147117634e-13
	1.326101665238798e-06,8.440319321931481e-12
	-2.622882878021246e-09,-4.894920747394797e-14
	-1.953568046257154e-05,-8.160621599745769e-12
	-1.821220168021075e-05,2.307485147117637e-13
	-1.326101665199975e-06,-8.440319321931480e-12
	-1.821220168021075e-05,2.307485147117637e-13
12		1.318256738556407e+00,0.000000000000000e+00
	-1.821220168021075e-01,2.361233380837403e-09
	1.000000000000000e+00,0.000000000000000e+00
	0.000000000000000e+00,0.000000000000000e+00
	4.916689450304121e-09,-4.736076437054604e-14
	4.918079098608032e-09,1.141002051102809e-13
	1.821220168021076e-05,-2.361233380837390e-13
	1.326101665238798e-06,8.636919614744326e-12
	-2.622882878021041e-09,-5.008938098578770e-14
	-1.953568046257154e-05,-8.350706895674800e-12
	-1.821220168021075e-05,2.361233380837403e-13
	-1.326101665199975e-06,-8.636919614744331e-12
	-1.821220168021075e-05,2.361233380837403e-13
13		1.348962882591653e+00,0.000000000000000e+00
	-1.821220168021075e-01,2.416233571750308e-09
	1.000000000000000e+00,0.000000000000000e+00
	0.000000000000000e+00,0.000000000000000e+00
	4.916689450303633e-09,-4.846393828944010e-14
	4.918079098607643e-09,1.167579403071468e-13
	1.821220168021076e-05,-2.416233571750299e-13
	1.326101665238798e-06,8.838099316660061e-12
	-2.622882878020826e-09,-5.125611255043723e-14
	-1.953568046257154e-05,-8.545219846934594e-12
	-1.821220168021075e-05,2.416233571750308e-13
	-1.326101665199975e-06,-8.838099316660064e-12
	-1.821220168021075e-05,2.416233571750308e-13
14		1.380384264602885e+00,0.000000000000000e+00
	-1.821220168021075e-01,2.472514881685587e-09
	1.000000000000000e+00,0.000000000000000e+00
	0.000000000000000e+00,0.000000000000000e+00
	4.916689450303121e-09,-4.959280842991083e-14
	4.918079098607234e-09,1.194775821094381e-13
	1.821220168021076e-05,-2.472514881685577e-13
	1.326101665238798e-06,9.043965095819565e-12
	-2.622882878020601e-09,-5.245002078441612e-14
	-1.953568046257154e-05,-8.744263586866589e-12
	-1.821220168021075e-05,2.472514881685587e-13
	-1.326101665199975e-06,-9.043965095819566e-12
	-1.821220168021075e-05,2.472514881685587e-13
15		1.412537544622754e+00,0.000000000000000e+00
	-1.821220168021075e-01,2.530107151738738e-09
	1.000000000000000e+00,0.000000000000000e+00
	0.000000000000000e+00,0.000000000000000e+00
	4.916689450302585e-09,-5.074797333384959e-14
	4.918079098606806e-09,1.222605725072365e-13
	1.821220168021076e-05,-2.530107151738734e-13
	1.326101665238798e-06,9.254626104983896e-12
	-2.622882878020366e-09,-5.367173871367295e-14
	-1.953568046257154e-05,-8.947943651096351e-12
	-1.821220168021075e-05,2.530107151738738e-13
	-1.326101665199975e-06,-9.254626104983898e-12
	-1.821220168021075e-05,2.530107151738738e-13
16		1.445439770745927e+00,0.000000000000000e+00
	-1.821220168021075e-01,2.589040918093669e-09
	1.000000000000000e+00,0.000000000000000e+00
	0.000000000000000e+00,0.000000000000000e+00
	4.916689450302023e-09,-5.193004548497881e-14
	4.918079098606358e-09,1.251083870788882e-13
	1.821220168021076e-05,-2.589040918093674e-13
	1.326101665238797e-06,9.470194039408551e-12
	-2.622882878020120e-09,-5.492191410922521e-14
	-1.953568046257154e-05,-9.156368033489959e-12
	-1.821220168021075e-05,2.589040918093669e-13
	-1.326101665199975e-06,-9.470194039408553e-12
	-1.821220168021075e-05,2.589040918093669e-13
17		1.479108388168207e+00,0.000000000000000e+00
	-1.821220168021075e-01,2.649347428213381e-09
	1.000000000000000e+00,0.000000000000000e+00
	0.000000000000000e+00,0.000000000000000e+00
	4.916689450301434e-09,-5.313965163359971e-14
	4.918079098605887e-09,1.280225357733742e-13
	1.821220168021076e-05,-2.649347428213394e-13
	1.326101665238797e-06,9.690783196065737e-12
	-2.622882878019861e-09,-5.620120983061559e-14
	-1.953568046257154e-05,-9.369647243413783e-12
	-1.821220168021075e-05,2.649347428213381e-13
	-1.326101665199975e-06,-9.690783196065742e-12
	-1.821220168021075e-05,2.649347428213381e-13
18		1.513561248436208e+00,0.000000000000000e+00
	-1.821220168021075e-01,2.711058657407792e-09
	1.000000000000000e+00,0.000000000000000e+00
	0.000000000000000e+00,0.000000000000000e+00
	4.916689450300820e-09,-5.437743312890294e-14
	4.918079098605397e-09,1.310045637109061e-13
	1.821220168021076e-05,-2.711058657407790e-13
	1.326101665238797e-06,9.916510534246159e-12
	-2.622882878019591e-09,-5.751030417736924e-14
	-1.953568046257154e-05,-9.587894364328013e-12
	-1.821220168021075e-05,2.711058657407792e-13
	-1.326101665199975e-06,-9.916510534246161e-12
	-1.821220168021075e-05,2.711058657407792e-13
19		1.548816618912481e+00,0.000000000000000e+00
	-1.821220168021075e-01,2.774207325787463e-09
	1.000000000000000e+00,0.000000000000000e+00
	0.000000000000000e+00,0.000000000000000e+00
	4.916689450300175e-09,-5.564404625902201e-14
	4.918079098604882e-09,1.340560520021676e-13
	1.821220168021076e-05,-2.774207325787454e-13
	1.326101665238796e-06,1.014749573757237e-11
	-2.622882878019308e-09,-5.884989124863636e-14
	-1.953568046257154e-05,-9.811225113744990e-12
	-1.821220168021075e-05,2.774207325787463e-13
	-1.326101665199975e-06,-1.014749573757237e-11
	-1.821220168021075e-05,2.774207325787463e-13
20		1.584893192461113e+00,0.000000000000000e+00
	-1.821220168021075e-01,2.838826915612242e-09
	1.000000000000000e+00,0.000000000000000e+00
	0.000000000000000e+00,0.000000000000000e+00
	4.916689450299500e-09,-5.694016259900310e-14
	4.918079098604344e-09,1.371786185866426e-13
	1.821220168021076e-05,-2.838826915612239e-13
	1.326101665238796e-06,1.038386127745663e-11
	-2.622882878019012e-09,-6.022068131121420e-14
	-1.953568046257154e-05,-1.003975790458419e-11
	-1.821220168021075e-05,2.838826915612242e-13
	-1.326101665199975e-06,-1.038386127745663e-11
	-1.821220168021075e-05,2.838826915612242e-13
21		1.621810097358929e+00,0.000000000000000e+00
	-1.821220168021075e-01,2.904951689043995e-09
	1.000000000000000e+00,0.000000000000000e+00
	0.000000000000000e+00,0.000000000000000e+00
	4.916689450298795e-09,-5.826646936688672e-14
	4.918079098603781e-09,1.403739190904657e-13
	1.821220168021076e-05,-2.904951689043983e-13
	1.326101665238796e-06,1.062573247803685e-11
	-2.622882878018702e-09,-6.162340117613799e-14
	-1.953568046257154e-05,-1.027361390795631e-11
	-1.821220168021075e-05,2.904951689043995e-13
	-1.326101665199975e-06,-1.062573247803685e-11
	-1.821220168021075e-05,2.904951689043995e-13
22		1.659586907437560e+00,0.000000000000000e+00
	-1.821220168021075e-01,2.972616706312860e-09
	1.000000000000000e+00,0.000000000000000e+00
	0.000000000000000e+00,0.000000000000000e+00
	4.916689450298054e-09,-5.962366978807645e-14
	4.918079098603190e-09,1.436436477042591e-13
	1.821220168021076e-05,-2.972616706312852e-13
	1.326101665238796e-06,1.087323758262512e-11
	-2.622882878018377e-09,-6.305879458404756e-14
	-1.953568046257154e-05,-1.051291711740979e-11
	-1.821220168021075e-05,2.972616706312860e-13
	-1.326101665199975e-06,-1.087323758262512e-11
	-1.821220168021075e-05,2.972616706312860e-13
23		1.698243652461743e+00,0.000000000000000e+00
	-1.821220168021075e-01,3.041857844306646e-09
	1.000000000000000e+00,0.000000000000000e+00
	0.000000000000000e+00,0.000000000000000e+00
	4.916689450297279e-09,-6.101248346820036e-14
	4.918079098602571e-09,1.469895380814137e-13
	1.821220168021076e-05,-3.041857844306645e-13
	1.326101665238795e-06,1.112650782170402e-11
	-2.622882878018036e-09,-6.452762259952744e-14
	-1.953568046257154e-05,-1.075779441467382e-11
	-1.821220168021075e-05,3.041857844306646e-13
	-1.326101665199975e-06,-1.112650782170402e-11
	-1.821220168021075e-05,3.041857844306646e-13
24		1.737800828749374e+00,0.000000000000000e+00
	-1.821220168021075e-01,3.112711815593232e-09
	1.000000000000000e+00,0.000000000000000e+00
	0.000000000000000e+00,0.000000000000000e+00
	4.916689450296467e-09,-6.243364677465480e-14
	4.918079098601923e-09,1.504133642572957e-13
	1.821220168021076e-05,-3.112711815593238e-13
	1.326101665238795e-06,1.138567748250671e-11
	-2.622882878017679e-09,-6.603066401463361e-14
	-1.953568046257154e-05,-1.100837563693276e-11
	-1.821220168021075e-05,3.112711815593232e-13
	-1.326101665199975e-06,-1.138567748250671e-11
	-1.821220168021075e-05,3.112711815593232e-13
25		1.778279410038922e+00,0.000000000000000e+00
	-1.821220168021075e-01,3.185216187886057e-09
	1.000000000000000e+00,0.000000000000000e+00
	0.000000000000000e+00,0.000000000000000e+00
	4.916689450295618e-09,-6.388791322703617e-14
	4.918079098601244e-09,1.539169415898631e-13
	1.821220168021076e-05,-3.185216187886053e-13
	1.326101665238795e-06,1.165088398021790e-11
	-2.622882878017306e-09,-6.756871576181953e-14
	-1.953568046257154e-05,-1.126479364566747e-11
	-1.821220168021075e-05,3.185216187886057e-13
	-1.326101665199975e-06,-1.165088398021790e-11
	-1.821220168021075e-05,3.185216187886057e-13
26		1.819700858609982e+00,0.000000000000000e+00
	-1.821220168021075e-01,3.259409403963020e-09
	1.000000000000000e+00,0.000000000000000e+00
	0.000000000000000e+00,0.000000000000000e+00
	4.916689450294728e-09,-6.537605389666706e-14
	4.918079098600535e-09,1.575021277221930e-13
	1.821220168021076e-05,-3.259409403963021e-13
	1.326101665238794e-06,1.192226793083308e-11
	-2.622882878016916e-09,-6.914259333648004e-14
	-1.953568046257154e-05,-1.152718439710029e-11
	-1.821220168021075e-05,3.259409403963020e-13
	-1.326101665199975e-06,-1.192226793083308e-11
	-1.821220168021075e-05,3.259409403963020e-13
27		1.862087136662866e+00,0.000000000000000e+00
	-1.821220168021075e-01,3.335330802049348e-09
	1.000000000000000e+00,0.000000000000000e+00
	0.000000000000000e+00,0.000000000000000e+00
	4.916689450293796e-09,-6.689885781542797e-14
	4.918079098599790e-09,1.611708235674287e-13
	1.821220168021076e-05,-3.335330802049357e-13
	1.326101665238794e-06,1.219997322571505e-11
	-2.622882878016506e-09,-7.075313122933816e-14
	-1.953568046257154e-05,-1.179568701428078e-11
	-1.821220168021075e-05,3.335330802049348e-13
	-1.326101665199975e-06,-1.219997322571505e-11
	-1.821220168021075e-05,3.335330802049348e-13
28		1.905460717963246e+00,0.000000000000000e+00
	-1.821220168021075e-01,3.413020636675245e-09
	1.000000000000000e+00,0.000000000000000e+00
	0.000000000000000e+00,0.000000000000000e+00
	4.916689450292822e-09,-6.845713239411421e-14
	4.918079098599013e-09,1.649249743166674e-13
	1.821220168021076e-05,-3.413020636675240e-13
	1.326101665238793e-06,1.248414710788704e-11
	-2.622882878016078e-09,-7.240118336890220e-14
	-1.953568046257154e-05,-1.207044386085061e-11
	-1.821220168021075e-05,3.413020636675245e-13
	-1.326101665199975e-06,-1.248414710788704e-11
	-1.821220168021075e-05,3.413020636675245e-13
29		1.949844599758044e+00,0.000000000000000e+00
	-1.821220168021075e-01,3.492520100019377e-09
	1.000000000000000e+00,0.000000000000000e+00
	0.000000000000000e+00,0.000000000000000e+00
	4.916689450291799e-09,-7.005170385053308e-14
	4.918079098598197e-09,1.687665704703289e-13
	1.821220168021076e-05,-3.492520100019371e-13
	1.326101665238793e-06,1.277494025010285e-11
	-2.622882878015630e-09,-7.408762357423142e-14
	-1.953568046257154e-05,-1.235160061652668e-11
	-1.821220168021075e-05,3.492520100019377e-13
	-1.326101665199975e-06,-1.277494025010285e-11
	-1.821220168021075e-05,3.492520100019377e-13
30		1.995262314968878e+00,0.000000000000000e+00
	-1.821220168021075e-01,3.573871343749506e-09
	1.000000000000000e+00,0.000000000000000e+00
	0.000000000000000e+00,0.000000000000000e+00
	4.916689450290730e-09,-7.168341764757697e-14
	4.918079098597343e-09,1.726976488935438e-13
	1.821220168021076e-05,-3.573871343749491e-13
	1.326101665238792e-06,1.307250683473559e-11
	-2.622882878015160e-09,-7.581334601824552e-14
	-1.953568046257154e-05,-1.263930635434240e-11
	-1.821220168021075e-05,3.573871343749506e-13
	-1.326101665199975e-06,-1.307250683473559e-11
	-1.821220168021075e-05,3.573871343749506e-13
31		2.041737944669527e+00,0.000000000000000e+00
	-1.821220168021075e-01,3.657117501371871e-09
	1.000000000000000e+00,0.000000000000000e+00
	0.000000000000000e+00,0.000000000000000e+00
	4.916689450289609e-09,-7.335313894150010e-14
	4.918079098596448e-09,1.767202938961254e-13
	1.821220168021076e-05,-3.657117501371874e-13
	1.326101665238792e-06,1.337700463552719e-11
	-2.622882878014668e-09,-7.757926570182660e-14
	-1.953568046257154e-05,-1.293371361968818e-11
	-1.821220168021075e-05,3.657117501371871e-13
	-1.326101665199975e-06,-1.337700463552719e-11
	-1.821220168021075e-05,3.657117501371871e-13
32		2.089296130854037e+00,0.000000000000000e+00
	-1.821220168021075e-01,3.742302711101137e-09
	1.000000000000000e+00,0.000000000000000e+00
	0.000000000000000e+00,0.000000000000000e+00
	4.916689450288437e-09,-7.506175304063367e-14
	4.918079098595514e-09,1.808366383377004e-13
	1.821220168021076e-05,-3.742302711101140e-13
	1.326101665238791e-06,1.368859510124214e-11
	-2.622882878014153e-09,-7.938631893896577e-14
	-1.953568046257154e-05,-1.323497851119306e-11
	-1.821220168021075e-05,3.742302711101137e-13
	-1.326101665199975e-06,-1.368859510124214e-11
	-1.821220168021075e-05,3.742302711101137e-13
33		2.137962089502230e+00,0.000000000000000e+00
	-1.821220168021075e-01,3.829472139263061e-09
	1.000000000000000e+00,0.000000000000000e+00
	0.000000000000000e+00,0.000000000000000e+00
	4.916689450287210e-09,-7.681016587478865e-14
	4.918079098594534e-09,1.850488647585783e-13
	1.821220168021076e-05,-3.829472139263067e-13
	1.326101665238791e-06,1.400744344126974e-11
	-2.622882878013614e-09,-8.123546385320877e-14
	-1.953568046257154e-05,-1.354326076349023e-11
	-1.821220168021075e-05,3.829472139263061e-13
	-1.326101665199975e-06,-1.400744344126974e-11
	-1.821220168021075e-05,3.829472139263061e-13
34		2.187761623949550e+00,0.000000000000000e+00
	-1.821220168021075e-01,3.918672004242278e-09
	1.000000000000000e+00,0.000000000000000e+00
	0.000000000000000e+00,0.000000000000000e+00
	4.916689450285922e-09,-7.859930447559415e-14
	4.918079098593506e-09,1.893592065369616e-13
	1.821220168021076e-05,-3.918672004242265e-13
	1.326101665238790e-06,1.433371871322034e-11
	-2.622882878013049e-09,-8.312768088566472e-14
	-1.953568046257154e-05,-1.385872383191044e-11
	-1.821220168021075e-05,3.918672004242279e-13
	-1.326101665199975e-06,-1.433371871322034e-11
	-1.821220168021075e-05,3.918672004242279e-13
35		2.238721138568337e+00,0.000000000000000e+00
	-1.821220168021075e-01,4.009949600987901e-09
	1.000000000000000e+00,0.000000000000000e+00
	0.000000000000000e+00,0.000000000000000e+00
	4.916689450284576e-09,-8.043011746801650e-14
	4.918079098592432e-09,1.937699490731171e-13
	1.821220168021076e-05,-4.009949600987895e-13
	1.326101665238790e-06,1.466759391256188e-11
	-2.622882878012457e-09,-8.506397331485168e-14
	-1.953568046257154e-05,-1.418153497914824e-11
	-1.821220168021075e-05,4.009949600987901e-13
	-1.326101665199975e-06,-1.466759391256188e-11
	-1.821220168021075e-05,4.009949600987901e-13
36		2.290867652767770e+00,0.000000000000000e+00
	-1.821220168021075e-01,4.103353326089925e-09
	1.000000000000000e+00,0.000000000000000e+00
	0.000000000000000e+00,0.000000000000000e+00
	4.916689450283167e-09,-8.230357557333874e-14
	4.918079098591307e-09,1.982834310011197e-13
	1.821220168021076e-05,-4.103353326089927e-13
	1.326101665238789e-06,1.500924606434442e-11
	-2.622882878011838e-09,-8.704536778864497e-14
	-1.953568046257154e-05,-1.451186536394678e-11
	-1.821220168021075e-05,4.103353326089925e-13
	-1.326101665199975e-06,-1.500924606434442e-11
	-1.821220168021075e-05,4.103353326089925e-13
37		2.344228815319919e+00,0.000000000000000e+00
	-1.821220168021075e-01,4.198932703439744e-09
	1.000000000000000e+00,0.000000000000000e+00
	0.000000000000000e+00,0.000000000000000e+00
	4.916689450281690e-09,-8.422067212384753e-14
	4.918079098590129e-09,2.029020454288297e-13
	1.821220168021076e-05,-4.198932703439748e-13
	1.326101665238788e-06,1.535885631706113e-11
	-2.622882878011190e-09,-8.907291486862103e-14
	-1.953568046257154e-05,-1.484989013184853e-11
	-1.821220168021075e-05,4.198932703439744e-13
	-1.326101665199975e-06,-1.535885631706113e-11
	-1.821220168021075e-05,4.198932703439744e-13
38		2.398832919019488e+00,0.000000000000000e+00
	-1.821220168021075e-01,4.296738410488372e-09
	1.000000000000000e+00,0.000000000000000e+00
	0.000000000000000e+00,0.000000000000000e+00
	4.916689450280144e-09,-8.618242358950797e-14
	4.918079098588895e-09,2.076282412067529e-13
	1.821220168021076e-05,-4.296738410488366e-13
	1.326101665238788e-06,1.571661003869564e-11
	-2.622882878010511e-09,-9.114768958708021e-14
	-1.953568046257154e-05,-1.519578850805973e-11
	-1.821220168021075e-05,4.296738410488372e-13
	-1.326101665199975e-06,-1.571661003869565e-11
	-1.821220168021075e-05,4.296738410488372e-13
39		2.454708915685027e+00,0.000000000000000e+00
	-1.821220168021075e-01,4.396822305116297e-09
	1.000000000000000e+00,0.000000000000000e+00
	0.000000000000000e+00,0.000000000000000e+00
	4.916689450278525e-09,-8.818987011691490e-14
	4.918079098587602e-09,2.124645242264485e-13
	1.821220168021076e-05,-4.396822305116293e-13
	1.326101665238787e-06,1.608269691500661e-11
	-2.622882878009800e-09,-9.327079201704071e-14
	-1.953568046257154e-05,-1.554974389247794e-11
	-1.821220168021075e-05,4.396822305116298e-13
	-1.326101665199975e-06,-1.608269691500661e-11
	-1.821220168021075e-05,4.396822305116298e-13
40		2.511886431509577e+00,0.000000000000000e+00
	-1.821220168021075e-01,4.499237453129218e-09
	1.000000000000000e+00,0.000000000000000e+00
	0.000000000000000e+00,0.000000000000000e+00
	4.916689450276831e-09,-9.024407608078910e-14
	4.918079098586249e-09,2.174134587491891e-13
	1.821220168021076e-05,-4.499237453129227e-13
	1.326101665238786e-06,1.645731105010157e-11
	-2.622882878009056e-09,-9.544334785551336e-14
	-1.953568046257154e-05,-1.591194395693313e-11
	-1.821220168021075e-05,4.499237453129219e-13
	-1.326101665199975e-06,-1.645731105010157e-11
	-1.821220168021075e-05,4.499237453129219e-13
41		2.570395782768860e+00,0.000000000000000e+00
	-1.821220168021075e-01,4.604038156394237e-09
	1.000000000000000e+00,0.000000000000000e+00
	0.000000000000000e+00,0.000000000000000e+00
	4.916689450275055e-09,-9.234613064832270e-14
	4.918079098584832e-09,2.224776687655660e-13
	1.821220168021071e-05,-4.604038156394228e-13
	1.326101665238840e-06,1.684065106935354e-11
	-2.622882878008276e-09,-9.766650902036117e-14
	-1.953568046257154e-05,-1.628258074469376e-11
	-1.821220168021075e-05,4.604038156394237e-13
	-1.326101665199975e-06,-1.684065106935354e-11
	-1.821220168021075e-05,4.604038156394237e-13
42		2.630267991895378e+00,0.000000000000000e+00
	-1.821220168021074e-01,4.711279981631424e-09
	1.000000000000000e+00,0.000000000000000e+00
	0.000000000000000e+00,0.000000000000000e+00
	4.916689450273197e-09,-9.449714835667114e-14
	4.918079098583349e-09,2.276598393867628e-13
	1.821220168021076e-05,-4.711279981631448e-13
	1.326101665238839e-06,1.723292022471487e-11
	-2.622882878007460e-09,-9.994145426106082e-14
	-1.953568046257159e-05,-1.666185077229067e-11
	-1.821220168021074e-05,4.711279981631423e-13
	-1.326101665199975e-06,-1.723292022471487e-11
	-1.821220168021074e-05,4.711279981631423e-13
43		2.691534803926912e+00,0.000000000000000e+00
	-1.821220168021074e-01,4.821019789876038e-09
	1.000000000000000e+00,0.000000000000000e+00
	0.000000000000000e+00,0.000000000000000e+00
	4.916689450271250e-09,-9.669826970389610e-14
	4.918079098581795e-09,2.329627182682367e-13
	1.821220168021076e-05,-4.821019789876031e-13
	1.326101665238838e-06,1.763432650248401e-11
	-2.622882878006605e-09,-1.022693897836912e-13
	-1.953568046257159e-05,-1.704995513371271e-11
	-1.821220168021074e-05,4.821019789876037e-13
	-1.326101665199975e-06,-1.763432650248401e-11
	-1.821220168021074e-05,4.821019789876037e-13
44		2.754228703338163e+00,0.000000000000000e+00
	-1.821220168021074e-01,4.933315766626983e-09
	1.000000000000000e+00,0.000000000000000e+00
	0.000000000000000e+00,0.000000000000000e+00
	4.916689450269213e-09,-9.895066175367157e-14
	4.918079098580169e-09,2.383891170665619e-13
	1.821220168021076e-05,-4.933315766626972e-13
	1.326101665238837e-06,1.804508273358267e-11
	-2.622882878005710e-09,-1.046515498904800e-13
	-1.953568046257159e-05,-1.744709960702949e-11
	-1.821220168021074e-05,4.933315766626983e-13
	-1.326101665199975e-06,-1.804508273358266e-11
	-1.821220168021074e-05,4.933315766626983e-13
45		2.818382931264450e+00,0.000000000000000e+00
	-1.821220168021074e-01,5.048227452697548e-09
	1.000000000000000e+00,0.000000000000000e+00
	0.000000000000000e+00,0.000000000000000e+00
	4.916689450267077e-09,-1.012555187540756e-13
	4.918079098578464e-09,2.439419129302088e-13
	1.821220168021076e-05,-5.048227452697534e-13
	1.326101665238836e-06,1.846540670640158e-11
	-2.622882878004772e-09,-1.070891976342477e-13
	-1.953568046257159e-05,-1.785349476349758e-11
	-1.821220168021074e-05,5.048227452697549e-13
	-1.326101665199975e-06,-1.846540670640158e-11
	-1.821220168021074e-05,5.048227452697549e-13
46		2.884031503126602e+00,0.000000000000000e+00
	-1.821220168021074e-01,5.165815775784722e-09
	1.000000000000000e+00,0.000000000000000e+00
	0.000000000000000e+00,0.000000000000000e+00
	4.916689450264844e-09,-1.036140627707982e-13
	4.918079098576681e-09,2.496240500250443e-13
	1.821220168021076e-05,-5.165815775784725e-13
	1.326101665238835e-06,1.889552128227477e-11
	-2.622882878003792e-09,-1.095836254880943e-13
	-1.953568046257159e-05,-1.826935607920821e-11
	-1.821220168021074e-05,5.165815775784722e-13
	-1.326101665199975e-06,-1.889552128227477e-11
	-1.821220168021074e-05,5.165815775784722e-13
47		2.951209226666381e+00,0.000000000000000e+00
	-1.821220168021074e-01,5.286143082773873e-09
	1.000000000000000e+00,0.000000000000000e+00
	0.000000000000000e+00,0.000000000000000e+00
	4.916689450262503e-09,-1.060275443350952e-13
	4.918079098574813e-09,2.554385410953691e-13
	1.821220168021076e-05,-5.286143082773881e-13
	1.326101665238834e-06,1.933565451364362e-11
	-2.622882878002763e-09,-1.121361560306860e-13
	-1.953568046257159e-05,-1.869490404933555e-11
	-1.821220168021074e-05,5.286143082773873e-13
	-1.326101665199975e-06,-1.933565451364363e-11
	-1.821220168021074e-05,5.286143082773873e-13
48		3.019951720402012e+00,0.000000000000000e+00
	-1.821220168021074e-01,5.409273172795887e-09
	1.000000000000000e+00,0.000000000000000e+00
	0.000000000000000e+00,0.000000000000000e+00
	4.916689450260054e-09,-1.084972431068406e-13
	4.918079098572857e-09,2.613884690613100e-13
	1.821220168021076e-05,-5.409273172795892e-13
	1.326101665238833e-06,1.978603976497325e-11
	-2.622882878001688e-09,-1.147481426475019e-13
	-1.953568046257159e-05,-1.913036430504616e-11
	-1.821220168021074e-05,5.409273172795887e-13
	-1.326101665199975e-06,-1.978603976497326e-11
	-1.821220168021074e-05,5.409273172795887e-13