Title: * GA CMOS Amp | W=2.6861511496581556e-05 L=9.267860234432522e-07 Vbias=1.2404315381069377
Date: Sat Sep  6 22:09:43 2025
Plotname: AC Analysis
Flags: complex forward log
No. Variables: 13
No. Points:          901
Offset:    0.0000000000000000e+00
Command: Linear Technology Corporation LTspice
Variables:
	0	frequency	frequency
	1	V(out)	voltage
	2	V(g)	voltage
	3	V(vdd)	voltage
	4	V(m1#dbody)	voltage
	5	V(m1#sbody)	voltage
	6	Id(M1)	device_current
	7	Ig(M1)	device_current
	8	Ib(M1)	device_current
	9	Is(M1)	device_current
	10	I(Rload)	device_current
	11	I(Vg)	device_current
	12	I(Vdd)	device_current
Values:
0		1.000000000000000e+00,0.000000000000000e+00
	1.051636351009110e-02,1.165823176318014e-09
	1.000000000000000e+00,0.000000000000000e+00
	0.000000000000000e+00,0.000000000000000e+00
	1.262304202867889e-04,1.323441680463457e-13
	1.262304202052708e-04,1.257735681892182e-13
	-1.051636351009109e-06,-1.165823176318019e-13
	9.587003831610066e-05,6.472603721535033e-12
	-6.732289083249310e-05,-6.756840777436607e-14
	-2.749551113259845e-05,-6.288452996128865e-12
	1.051636351009111e-06,1.165823176318014e-13
	-9.587003831607044e-05,-6.472603721535031e-12
	1.051636351009111e-06,1.165823176318014e-13
1		1.023292992280754e+00,0.000000000000000e+00
	1.051636351009110e-02,1.192978686564714e-09
	1.000000000000000e+00,0.000000000000000e+00
	0.000000000000000e+00,0.000000000000000e+00
	1.262304202867889e-04,1.354268597310521e-13
	1.262304202052708e-04,1.287032109421725e-13
	-1.051636351009109e-06,-1.192978686564715e-13
	9.587003831610066e-05,6.623370030057129e-12
	-6.732289083249310e-05,-6.914227817507722e-14
	-2.749551113259845e-05,-6.434929883225580e-12
	1.051636351009111e-06,1.192978686564714e-13
	-9.587003831607044e-05,-6.623370030057128e-12
	1.051636351009111e-06,1.192978686564714e-13
2		1.047128548050899e+00,0.000000000000000e+00
	1.051636351009110e-02,1.220766729901969e-09
	1.000000000000000e+00,0.000000000000000e+00
	0.000000000000000e+00,0.000000000000000e+00
	1.262304202867889e-04,1.385813565293742e-13
	1.262304202052708e-04,1.317010938411568e-13
	-1.051636351009109e-06,-1.220766729901974e-13
	9.587003831610066e-05,6.777648137039828e-12
	-6.732289083249310e-05,-7.075280872688305e-14
	-2.749551113259845e-05,-6.584818655322747e-12
	1.051636351009111e-06,1.220766729901970e-13
	-9.587003831607044e-05,-6.777648137039825e-12
	1.051636351009111e-06,1.220766729901970e-13
3		1.071519305237606e+00,0.000000000000000e+00
	1.051636351009110e-02,1.249202039918177e-09
	1.000000000000000e+00,0.000000000000000e+00
	0.000000000000000e+00,0.000000000000000e+00
	1.262304202867889e-04,1.418093309972694e-13
	1.262304202052708e-04,1.347688064033658e-13
	-1.051636351009109e-06,-1.249202039918177e-13
	9.587003831610066e-05,6.935519842777562e-12
	-6.732289083249310e-05,-7.240085335440001e-14
	-2.749551113259845e-05,-6.738198785431344e-12
	1.051636351009111e-06,1.249202039918177e-13
	-9.587003831607044e-05,-6.935519842777560e-12
	1.051636351009111e-06,1.249202039918177e-13
4		1.096478196143185e+00,0.000000000000000e+00
	1.051636351009110e-02,1.278299693391094e-09
	1.000000000000000e+00,0.000000000000000e+00
	0.000000000000000e+00,0.000000000000000e+00
	1.262304202867889e-04,1.451124946495277e-13
	1.262304202052708e-04,1.379079751706058e-13
	-1.051636351009112e-06,-1.278299693391098e-13
	9.587003831610066e-05,7.097068852938395e-12
	-6.732289083249310e-05,-7.408728587270405e-14
	-2.749551113259845e-05,-6.895151597726582e-12
	1.051636351009111e-06,1.278299693391094e-13
	-9.587003831607044e-05,-7.097068852938394e-12
	1.051636351009111e-06,1.278299693391094e-13
5		1.122018454301963e+00,0.000000000000000e+00
	1.051636351009110e-02,1.308075118281743e-09
	1.000000000000000e+00,0.000000000000000e+00
	0.000000000000000e+00,0.000000000000000e+00
	1.262304202867889e-04,1.484925988672401e-13
	1.262304202052708e-04,1.411202645717091e-13
	-1.051636351009112e-06,-1.308075118281744e-13
	9.587003831610066e-05,7.262380822945872e-12
	-6.732289083249310e-05,-7.581300045063897e-14
	-2.749551113259845e-05,-7.055760310667058e-12
	1.051636351009111e-06,1.308075118281743e-13
	-9.587003831607044e-05,-7.262380822945870e-12
	1.051636351009111e-06,1.308075118281743e-13
6		1.148153621496882e+00,0.000000000000000e+00
	1.051636351009110e-02,1.338544101914526e-09
	1.000000000000000e+00,0.000000000000000e+00
	0.000000000000000e+00,0.000000000000000e+00
	1.262304202867889e-04,1.519514358264038e-13
	1.262304202052708e-04,1.444073778050359e-13
	-1.051636351009112e-06,-1.338544101914516e-13
	9.587003831610066e-05,7.431543403394647e-12
	-6.732289083249310e-05,-7.757891208491650e-14
	-2.749551113259845e-05,-7.220110081118279e-12
	1.051636351009111e-06,1.338544101914526e-13
	-9.587003831607044e-05,-7.431543403394645e-12
	1.051636351009111e-06,1.338544101914526e-13
7		1.174897554939529e+00,0.000000000000000e+00
	1.051636351009110e-02,1.369722799347870e-09
	1.000000000000000e+00,0.000000000000000e+00
	0.000000000000000e+00,0.000000000000000e+00
	1.262304202867889e-04,1.554908394481577e-13
	1.262304202052708e-04,1.477710577415326e-13
	-1.051636351009112e-06,-1.369722799347875e-13
	9.587003831610066e-05,7.604646286524007e-12
	-6.732289083249310e-05,-7.938595708525978e-14
	-2.749551113259845e-05,-7.388288049503960e-12
	1.051636351009111e-06,1.369722799347870e-13
	-9.587003831607044e-05,-7.604646286524003e-12
	1.051636351009111e-06,1.369722799347870e-13
8		1.202264434617413e+00,0.000000000000000e+00
	1.051636351009110e-02,1.401627741939853e-09
	1.000000000000000e+00,0.000000000000000e+00
	0.000000000000000e+00,0.000000000000000e+00
	1.262304202867889e-04,1.591126863711517e-13
	1.262304202052708e-04,1.512130878488250e-13
	-1.051636351009112e-06,-1.401627741939853e-13
	9.587003831610066e-05,7.781781253773876e-12
	-6.732289083249310e-05,-8.123509357084702e-14
	-2.749551113259845e-05,-7.560383386009044e-12
	1.051636351009111e-06,1.401627741939853e-13
	-9.587003831607044e-05,-7.781781253773875e-12
	1.051636351009111e-06,1.401627741939853e-13
9		1.230268770812381e+00,0.000000000000000e+00
	1.051636351009110e-02,1.434275846113349e-09
	1.000000000000000e+00,0.000000000000000e+00
	0.000000000000000e+00,0.000000000000000e+00
	1.262304202867889e-04,1.628188969465650e-13
	1.262304202052708e-04,1.547352931368366e-13
	-1.051636351009112e-06,-1.434275846113340e-13
	9.587003831610066e-05,7.963042224448548e-12
	-6.732289083249310e-05,-8.312730197831909e-14
	-2.749551113259845e-05,-7.736487337858895e-12
	1.051636351009111e-06,1.434275846113349e-13
	-9.587003831607044e-05,-7.963042224448547e-12
	1.051636351009111e-06,1.434275846113349e-13
10		1.258925411794167e+00,0.000000000000000e+00
	1.051636351009110e-02,1.467684422325339e-09
	1.000000000000000e+00,0.000000000000000e+00
	0.000000000000000e+00,0.000000000000000e+00
	1.262304202867889e-04,1.666114362563022e-13
	1.262304202052708e-04,1.583395411254332e-13
	-1.051636351009112e-06,-1.467684422325346e-13
	9.587003831610066e-05,8.148525305513948e-12
	-6.732289083249310e-05,-8.506358558162000e-14
	-2.749551113259845e-05,-7.916693277699793e-12
	1.051636351009111e-06,1.467684422325339e-13
	-9.587003831607044e-05,-8.148525305513948e-12
	1.051636351009111e-06,1.467684422325339e-13
11		1.288249551693134e+00,0.000000000000000e+00
	1.051636351009111e-02,1.501871184245147e-09
	1.000000000000000e+00,0.000000000000000e+00
	0.000000000000000e+00,0.000000000000000e+00
	1.262304202867889e-04,1.704923151549057e-13
	1.262304202052708e-04,1.620277428346061e-13
	-1.051636351009105e-06,-1.501871184245133e-13
	9.587003831610066e-05,8.338328842554814e-12
	-6.732289083249310e-05,-8.704497102394595e-14
	-2.749551113259845e-05,-8.101096753106355e-12
	1.051636351009111e-06,1.501871184245147e-13
	-9.587003831607044e-05,-8.338328842554812e-12
	1.051636351009111e-06,1.501871184245147e-13
12		1.318256738556407e+00,0.000000000000000e+00
	1.051636351009111e-02,1.536854258146456e-09
	1.000000000000000e+00,0.000000000000000e+00
	0.000000000000000e+00,0.000000000000000e+00
	1.262304202867889e-04,1.744635913357368e-13
	1.262304202052708e-04,1.658018537977206e-13
	-1.051636351009105e-06,-1.536854258146450e-13
	9.587003831610066e-05,8.532553471918831e-12
	-6.732289083249310e-05,-8.907250886208519e-14
	-2.749551113259845e-05,-8.289795537242101e-12
	1.051636351009111e-06,1.536854258146456e-13
	-9.587003831607044e-05,-8.532553471918831e-12
	1.051636351009111e-06,1.536854258146456e-13
13		1.348962882591653e+00,0.000000000000000e+00
	1.051636351009111e-02,1.572652192518105e-09
	1.000000000000000e+00,0.000000000000000e+00
	0.000000000000000e+00,0.000000000000000e+00
	1.262304202867889e-04,1.785273704219927e-13
	1.262304202052708e-04,1.696638750983656e-13
	-1.051636351009105e-06,-1.572652192518095e-13
	9.587003831610066e-05,8.731302174075359e-12
	-6.732289083249310e-05,-9.114727412343714e-14
	-2.749551113259845e-05,-8.482889680700112e-12
	1.051636351009111e-06,1.572652192518105e-13
	-9.587003831607044e-05,-8.731302174075356e-12
	1.051636351009111e-06,1.572652192518105e-13
14		1.380384264602885e+00,0.000000000000000e+00
	1.051636351009111e-02,1.609283967898741e-09
	1.000000000000000e+00,0.000000000000000e+00
	0.000000000000000e+00,0.000000000000000e+00
	1.262304202867889e-04,1.826858070831355e-13
	1.262304202052708e-04,1.736158544313547e-13
	-1.051636351009105e-06,-1.609283967898749e-13
	9.587003831610066e-05,8.934680328217030e-12
	-6.732289083249310e-05,-9.327036687600614e-14
	-2.749551113259845e-05,-8.680481564551148e-12
	1.051636351009111e-06,1.609283967898741e-13
	-9.587003831607044e-05,-8.934680328217030e-12
	1.051636351009111e-06,1.609283967898741e-13
15		1.412537544622754e+00,0.000000000000000e+00
	1.051636351009111e-02,1.646769006940547e-09
	1.000000000000000e+00,0.000000000000000e+00
	0.000000000000000e+00,0.000000000000000e+00
	1.262304202867889e-04,1.869411061773264e-13
	1.262304202052708e-04,1.776598871884408e-13
	-1.051636351009109e-06,-1.646769006940557e-13
	9.587003831610066e-05,9.142795768133195e-12
	-6.732289083249310e-05,-9.544291281167209e-14
	-2.749551113259845e-05,-8.882675954627468e-12
	1.051636351009111e-06,1.646769006940547e-13
	-9.587003831607044e-05,-9.142795768133192e-12
	1.051636351009111e-06,1.646769006940547e-13
16		1.445439770745927e+00,0.000000000000000e+00
	1.051636351009111e-02,1.685127184707398e-09
	1.000000000000000e+00,0.000000000000000e+00
	0.000000000000000e+00,0.000000000000000e+00
	1.262304202867889e-04,1.912955239204704e-13
	1.262304202052708e-04,1.817981175693207e-13
	-1.051636351009109e-06,-1.685127184707407e-13
	9.587003831610066e-05,9.355758839384831e-12
	-6.732289083249310e-05,-9.766606384304701e-14
	-2.749551113259845e-05,-9.089580057071043e-12
	1.051636351009111e-06,1.685127184707398e-13
	-9.587003831607044e-05,-9.355758839384830e-12
	1.051636351009111e-06,1.685127184707398e-13
17		1.479108388168207e+00,0.000000000000000e+00
	1.051636351009111e-02,1.724378839212876e-09
	1.000000000000000e+00,0.000000000000000e+00
	0.000000000000000e+00,0.000000000000000e+00
	1.262304202867889e-04,1.957513690824927e-13
	1.262304202052708e-04,1.860327397185186e-13
	-1.051636351009109e-06,-1.724378839212887e-13
	9.587003831610066e-05,9.573682457811219e-12
	-6.732289083249310e-05,-9.994099871423474e-14
	-2.749551113259845e-05,-9.301303575175695e-12
	1.051636351009111e-06,1.724378839212876e-13
	-9.587003831607044e-05,-9.573682457811215e-12
	1.051636351009111e-06,1.724378839212876e-13
18		1.513561248436208e+00,0.000000000000000e+00
	1.051636351009111e-02,1.764544782203758e-09
	1.000000000000000e+00,0.000000000000000e+00
	0.000000000000000e+00,0.000000000000000e+00
	1.262304202867889e-04,2.003110042114783e-13
	1.262304202052708e-04,1.903659988887496e-13
	-1.051636351009109e-06,-1.764544782203764e-13
	9.587003831610066e-05,9.796682169399407e-12
	-6.732289083249310e-05,-1.022689236258163e-13
	-2.749551113259845e-05,-9.517958767553215e-12
	1.051636351009111e-06,1.764544782203758e-13
	-9.587003831607044e-05,-9.796682169399405e-12
	1.051636351009111e-06,1.764544782203758e-13
19		1.548816618912481e+00,0.000000000000000e+00
	1.051636351009111e-02,1.805646310194675e-09
	1.000000000000000e+00,0.000000000000000e+00
	0.000000000000000e+00,0.000000000000000e+00
	1.262304202867889e-04,2.049768468863264e-13
	1.262304202052708e-04,1.948001926313832e-13
	-1.051636351009109e-06,-1.805646310194669e-13
	9.587003831610066e-05,1.002487621154823e-11
	-6.732289083249310e-05,-1.046510728743934e-13
	-2.749551113259845e-05,-9.739660507654369e-12
	1.051636351009111e-06,1.805646310194675e-13
	-9.587003831607044e-05,-1.002487621154823e-11
	1.051636351009111e-06,1.805646310194675e-13
20		1.584893192461113e+00,0.000000000000000e+00
	1.051636351009111e-02,1.847705215759812e-09
	1.000000000000000e+00,0.000000000000000e+00
	0.000000000000000e+00,0.000000000000000e+00
	1.262304202867889e-04,2.097513709985829e-13
	1.262304202052708e-04,1.993376720146355e-13
	-1.051636351009109e-06,-1.847705215759809e-13
	9.587003831610066e-05,1.025838557575934e-11
	-6.732289083249310e-05,-1.070887095070293e-13
	-2.749551113259845e-05,-9.966526344676327e-12
	1.051636351009111e-06,1.847705215759812e-13
	-9.587003831607044e-05,-1.025838557575934e-11
	1.051636351009111e-06,1.847705215759812e-13
21		1.621810097358929e+00,0.000000000000000e+00
	1.051636351009111e-02,1.890743799087614e-09
	1.000000000000000e+00,0.000000000000000e+00
	0.000000000000000e+00,0.000000000000000e+00
	1.262304202867889e-04,2.146371080641305e-13
	1.262304202052707e-04,2.039808428701359e-13
	-1.051636351009109e-06,-1.890743799087606e-13
	9.587003831610066e-05,1.049733407178850e-11
	-6.732289083249309e-05,-1.095831259909325e-13
	-2.749551113259846e-05,-1.019867656588880e-11
	1.051636351009111e-06,1.890743799087614e-13
	-9.587003831607044e-05,-1.049733407178850e-11
	1.051636351009111e-06,1.890743799087614e-13
22		1.659586907437560e+00,0.000000000000000e+00
	1.051636351009111e-02,1.934784879804646e-09
	1.000000000000000e+00,0.000000000000000e+00
	0.000000000000000e+00,0.000000000000000e+00
	1.262304202867889e-04,2.196366485654316e-13
	1.262304202052707e-04,2.087321670685316e-13
	-1.051636351009109e-06,-1.934784879804635e-13
	9.587003831610066e-05,1.074184839329117e-11
	-6.732289083249309e-05,-1.121356448987402e-13
	-2.749551113259846e-05,-1.043623426041196e-11
	1.051636351009111e-06,1.934784879804646e-13
	-9.587003831607044e-05,-1.074184839329116e-11
	1.051636351009111e-06,1.934784879804646e-13
23		1.698243652461743e+00,0.000000000000000e+00
	1.051636351009111e-02,1.979851809074855e-09
	1.000000000000000e+00,0.000000000000000e+00
	0.000000000000000e+00,0.000000000000000e+00
	1.262304202867889e-04,2.247526433250370e-13
	1.262304202052707e-04,2.135941638248041e-13
	-1.051636351009109e-06,-1.979851809074841e-13
	9.587003831610066e-05,1.099205818499713e-11
	-6.732289083249309e-05,-1.147476196097640e-13
	-2.749551113259846e-05,-1.067932538447988e-11
	1.051636351009111e-06,1.979851809074855e-13
	-9.587003831607044e-05,-1.099205818499713e-11
	1.051636351009111e-06,1.979851809074855e-13
24		1.737800828749374e+00,0.000000000000000e+00
	1.051636351009111e-02,2.025968481980673e-09
	1.000000000000000e+00,0.000000000000000e+00
	0.000000000000000e+00,0.000000000000000e+00
	1.262304202867889e-04,2.299878049110861e-13
	1.262304202052707e-04,2.185694110339893e-13
	-1.051636351009109e-06,-2.025968481980660e-13
	9.587003831610066e-05,1.124809611144986e-11
	-6.732289083249309e-05,-1.174204350275691e-13
	-2.749551113259846e-05,-1.092807882822423e-11
	1.051636351009111e-06,2.025968481980673e-13
	-9.587003831607044e-05,-1.124809611144986e-11
	1.051636351009111e-06,2.025968481980673e-13
25		1.778279410038922e+00,0.000000000000000e+00
	1.051636351009111e-02,2.073159350192500e-09
	1.000000000000000e+00,0.000000000000000e+00
	0.000000000000000e+00,0.000000000000000e+00
	1.262304202867889e-04,2.353449090755476e-13
	1.262304202052707e-04,2.236605466380130e-13
	-1.051636351009109e-06,-2.073159350192486e-13
	9.587003831610066e-05,1.151009792734705e-11
	-6.732289083249309e-05,-1.201555083142690e-13
	-2.749551113259846e-05,-1.118262648401353e-11
	1.051636351009111e-06,2.073159350192500e-13
	-9.587003831607044e-05,-1.151009792734705e-11
	1.051636351009111e-06,2.073159350192500e-13
26		1.819700858609982e+00,0.000000000000000e+00
	1.051636351009111e-02,2.121449434933307e-09
	1.000000000000000e+00,0.000000000000000e+00
	0.000000000000000e+00,0.000000000000000e+00
	1.262304202867889e-04,2.408267962259591e-13
	1.262304202052707e-04,2.288702700243615e-13
	-1.051636351009109e-06,-2.121449434933286e-13
	9.587003831610066e-05,1.177820254951946e-11
	-6.732289083249309e-05,-1.229542896419234e-13
	-2.749551113259846e-05,-1.144310331638421e-11
	1.051636351009111e-06,2.121449434933307e-13
	-9.587003831607044e-05,-1.177820254951946e-11
	1.051636351009111e-06,2.121449434933307e-13
27		1.862087136662866e+00,0.000000000000000e+00
	1.051636351009111e-02,2.170864340245218e-09
	1.000000000000000e+00,0.000000000000000e+00
	0.000000000000000e+00,0.000000000000000e+00
	1.262304202867889e-04,2.464363729314492e-13
	1.262304202052707e-04,2.342013434573331e-13
	-1.051636351009112e-06,-2.170864340245213e-13
	9.587003831610066e-05,1.205255213058658e-11
	-6.732289083249309e-05,-1.258182629614383e-13
	-2.749551113259846e-05,-1.170964743360062e-11
	1.051636351009111e-06,2.170864340245218e-13
	-9.587003831607044e-05,-1.205255213058658e-11
	1.051636351009111e-06,2.170864340245218e-13
28		1.905460717963246e+00,0.000000000000000e+00
	1.051636351009111e-02,2.221430266565114e-09
	1.000000000000000e+00,0.000000000000000e+00
	0.000000000000000e+00,0.000000000000000e+00
	1.262304202867889e-04,2.521766134638384e-13
	1.262304202052707e-04,2.396565935426269e-13
	-1.051636351009112e-06,-2.221430266565106e-13
	9.587003831610066e-05,1.233329213432772e-11
	-6.732289083249309e-05,-1.287489467893769e-13
	-2.749551113259846e-05,-1.198240016088183e-11
	1.051636351009111e-06,2.221430266565114e-13
	-9.587003831607044e-05,-1.233329213432772e-11
	1.051636351009111e-06,2.221430266565114e-13
29		1.949844599758044e+00,0.000000000000000e+00
	1.051636351009111e-02,2.273174024616449e-09
	1.000000000000000e+00,0.000000000000000e+00
	0.000000000000000e+00,0.000000000000000e+00
	1.262304202867889e-04,2.580505613746384e-13
	1.262304202052707e-04,2.452389127260472e-13
	-1.051636351009109e-06,-2.273174024616447e-13
	9.587003831610066e-05,1.262057141280890e-11
	-6.732289083249309e-05,-1.317478950130972e-13
	-2.749551113259847e-05,-1.226150611533416e-11
	1.051636351009111e-06,2.273174024616449e-13
	-9.587003831607044e-05,-1.262057141280890e-11
	1.051636351009111e-06,2.273174024616449e-13
30		1.995262314968878e+00,0.000000000000000e+00
	1.051636351009111e-02,2.326123049624651e-09
	1.000000000000000e+00,0.000000000000000e+00
	0.000000000000000e+00,0.000000000000000e+00
	1.262304202867889e-04,2.640613311087820e-13
	1.262304202052707e-04,2.509512608271155e-13
	-1.051636351009109e-06,-2.326123049624652e-13
	9.587003831610066e-05,1.291454228530616e-11
	-6.732289083249309e-05,-1.348166977146428e-13
	-2.749551113259847e-05,-1.254711328262906e-11
	1.051636351009111e-06,2.326123049624651e-13
	-9.587003831607044e-05,-1.291454228530616e-11
	1.051636351009111e-06,2.326123049624651e-13
31		2.041737944669527e+00,0.000000000000000e+00
	1.051636351009111e-02,2.380305415863641e-09
	1.000000000000000e+00,0.000000000000000e+00
	0.000000000000000e+00,0.000000000000000e+00
	1.262304202867889e-04,2.702121096559445e-13
	1.262304202052707e-04,2.567966666084069e-13
	-1.051636351009109e-06,-2.380305415863650e-13
	9.587003831610066e-05,1.321536061906727e-11
	-6.732289083249309e-05,-1.379569820138267e-13
	-2.749551113259847e-05,-1.283937309546708e-11
	1.051636351009111e-06,2.380305415863642e-13
	-9.587003831607044e-05,-1.321536061906727e-11
	1.051636351009111e-06,2.380305415863642e-13
32		2.089296130854037e+00,0.000000000000000e+00
	1.051636351009111e-02,2.435749851541191e-09
	1.000000000000000e+00,0.000000000000000e+00
	0.000000000000000e+00,0.000000000000000e+00
	1.262304202867889e-04,2.765061582403268e-13
	1.262304202052707e-04,2.627782293814400e-13
	-1.051636351009112e-06,-2.435749851541190e-13
	9.587003831610067e-05,1.352318591195459e-11
	-6.732289083249309e-05,-1.411704129309509e-13
	-2.749551113259847e-05,-1.313844051386952e-11
	1.051636351009111e-06,2.435749851541191e-13
	-9.587003831607044e-05,-1.352318591195458e-11
	1.051636351009111e-06,2.435749851541191e-13
33		2.137962089502230e+00,0.000000000000000e+00
	1.051636351009111e-02,2.492485754030987e-09
	1.000000000000000e+00,0.000000000000000e+00
	0.000000000000000e+00,0.000000000000000e+00
	1.262304202867889e-04,2.829468140497996e-13
	1.262304202052707e-04,2.688991206499722e-13
	-1.051636351009112e-06,-2.492485754030994e-13
	9.587003831610067e-05,1.383818137701295e-11
	-6.732289083249309e-05,-1.444586942696225e-13
	-2.749551113259847e-05,-1.344447410734023e-11
	1.051636351009111e-06,2.492485754030987e-13
	-9.587003831607044e-05,-1.383818137701295e-11
	1.051636351009111e-06,2.492485754030987e-13
34		2.187761623949550e+00,0.000000000000000e+00
	1.051636351009111e-02,2.550543205459521e-09
	1.000000000000000e+00,0.000000000000000e+00
	0.000000000000000e+00,0.000000000000000e+00
	1.262304202867889e-04,2.895374920053255e-13
	1.262304202052707e-04,2.751625857915735e-13
	-1.051636351009105e-06,-2.550543205459530e-13
	9.587003831610066e-05,1.416051402900739e-11
	-6.732289083249309e-05,-1.478235695201326e-13
	-2.749551113259847e-05,-1.375763613894130e-11
	1.051636351009111e-06,2.550543205459521e-13
	-9.587003831607044e-05,-1.416051402900738e-11
	1.051636351009111e-06,2.550543205459521e-13
35		2.238721138568337e+00,0.000000000000000e+00
	1.051636351009111e-02,2.609952988656020e-09
	1.000000000000000e+00,0.000000000000000e+00
	0.000000000000000e+00,0.000000000000000e+00
	1.262304202867889e-04,2.962816865715945e-13
	1.262304202052707e-04,2.815719457783690e-13
	-1.051636351009109e-06,-2.609952988656013e-13
	9.587003831610067e-05,1.449035477297656e-11
	-6.732289083249309e-05,-1.512668227838786e-13
	-2.749551113259847e-05,-1.407809265132708e-11
	1.051636351009111e-06,2.609952988656020e-13
	-9.587003831607044e-05,-1.449035477297656e-11
	1.051636351009111e-06,2.609952988656020e-13
36		2.290867652767770e+00,0.000000000000000e+00
	1.051636351009111e-02,2.670746603473915e-09
	1.000000000000000e+00,0.000000000000000e+00
	0.000000000000000e+00,0.000000000000000e+00
	1.262304202867889e-04,3.031829736098355e-13
	1.262304202052707e-04,2.881305989378614e-13
	-1.051636351009109e-06,-2.670746603473928e-13
	9.587003831610067e-05,1.482787849484890e-11
	-6.732289083249309e-05,-1.547902797193176e-13
	-2.749551113259847e-05,-1.440601355478219e-11
	1.051636351009111e-06,2.670746603473915e-13
	-9.587003831607044e-05,-1.482787849484889e-11
	1.051636351009111e-06,2.670746603473915e-13
37		2.344228815319919e+00,0.000000000000000e+00
	1.051636351009111e-02,2.732956283492484e-09
	1.000000000000000e+00,0.000000000000000e+00
	0.000000000000000e+00,0.000000000000000e+00
	1.262304202867889e-04,3.102450122737855e-13
	1.262304202052707e-04,2.948420227547701e-13
	-1.051636351009109e-06,-2.732956283492474e-13
	9.587003831610067e-05,1.517326415416937e-11
	-6.732289083249309e-05,-1.583958085099555e-13
	-2.749551113259847e-05,-1.474157271731017e-11
	1.051636351009111e-06,2.732956283492483e-13
	-9.587003831607044e-05,-1.517326415416937e-11
	1.051636351009111e-06,2.732956283492483e-13
38		2.398832919019488e+00,0.000000000000000e+00
	1.051636351009111e-02,2.796615013107512e-09
	1.000000000000000e+00,0.000000000000000e+00
	0.000000000000000e+00,0.000000000000000e+00
	1.262304202867889e-04,3.174715469498213e-13
	1.262304202052707e-04,3.017097757148389e-13
	-1.051636351009112e-06,-2.796615013107530e-13
	9.587003831610067e-05,1.552669487898628e-11
	-6.732289083249309e-05,-1.620853208548817e-13
	-2.749551113259847e-05,-1.508494805682065e-11
	1.051636351009111e-06,2.796615013107512e-13
	-9.587003831607044e-05,-1.552669487898628e-11
	1.051636351009111e-06,2.796615013107512e-13
39		2.454708915685027e+00,0.000000000000000e+00
	1.051636351009111e-02,2.861756545020067e-09
	1.000000000000000e+00,0.000000000000000e+00
	0.000000000000000e+00,0.000000000000000e+00
	1.262304202867889e-04,3.248664092422825e-13
	1.262304202052707e-04,3.087374991915927e-13
	-1.051636351009109e-06,-2.861756545020054e-13
	9.587003831610069e-05,1.588835806294813e-11
	-6.732289083249309e-05,-1.658607729823780e-13
	-2.749551113259848e-05,-1.543632163546375e-11
	1.051636351009111e-06,2.861756545020067e-13
	-9.587003831607044e-05,-1.588835806294813e-11
	1.051636351009111e-06,2.861756545020067e-13
40		2.511886431509577e+00,0.000000000000000e+00
	1.051636351009111e-02,2.928415418132617e-09
	1.000000000000000e+00,0.000000000000000e+00
	0.000000000000000e+00,0.000000000000000e+00
	1.262304202867889e-04,3.324335200050393e-13
	1.262304202052707e-04,3.159289193770419e-13
	-1.051636351009109e-06,-2.928415418132629e-13
	9.587003831610069e-05,1.625844546466224e-11
	-6.732289083249309e-05,-1.697241666871364e-13
	-2.749551113259848e-05,-1.579587975616184e-11
	1.051636351009111e-06,2.928415418132617e-13
	-9.587003831607044e-05,-1.625844546466224e-11
	1.051636351009111e-06,2.928415418132617e-13
41		2.570395782768860e+00,0.000000000000000e+00
	1.051636351009111e-02,2.996626975862019e-09
	1.000000000000000e+00,0.000000000000000e+00
	0.000000000000000e+00,0.000000000000000e+00
	1.262304202867889e-04,3.401768914203805e-13
	1.262304202052707e-04,3.232878492573582e-13
	-1.051636351009112e-06,-2.996626975862037e-13
	9.587003831610069e-05,1.663715330936768e-11
	-6.732289083249309e-05,-1.736775503916373e-13
	-2.749551113259848e-05,-1.616381306138984e-11
	1.051636351009111e-06,2.996626975862020e-13
	-9.587003831607044e-05,-1.663715330936768e-11
	1.051636351009111e-06,2.996626975862020e-13
42		2.630267991895378e+00,0.000000000000000e+00
	1.051636351009111e-02,3.066427384879075e-09
	1.000000000000000e+00,0.000000000000000e+00
	0.000000000000000e+00,0.000000000000000e+00
	1.262304202867889e-04,3.481006291263264e-13
	1.262304202052707e-04,3.308181906345715e-13
	-1.051636351009109e-06,-3.066427384879069e-13
	9.587003831610069e-05,1.702468239297650e-11
	-6.732289083249309e-05,-1.777230202322500e-13
	-2.749551113259849e-05,-1.654031663425635e-11
	1.051636351009111e-06,3.066427384879075e-13
	-9.587003831607044e-05,-1.702468239297650e-11
	1.051636351009111e-06,3.066427384879075e-13
43		2.691534803926912e+00,0.000000000000000e+00
	1.051636351009111e-02,3.137853654284555e-09
	1.000000000000000e+00,0.000000000000000e+00
	0.000000000000000e+00,0.000000000000000e+00
	1.262304202867889e-04,3.562089343934917e-13
	1.262304202052707e-04,3.385239361953556e-13
	-1.051636351009109e-06,-3.137853654284542e-13
	9.587003831610069e-05,1.742123818853840e-11
	-6.732289083249309e-05,-1.818627211706321e-13
	-2.749551113259849e-05,-1.692559010193931e-11
	1.051636351009111e-06,3.137853654284556e-13
	-9.587003831607044e-05,-1.742123818853839e-11
	1.051636351009111e-06,3.137853654284556e-13
44		2.754228703338163e+00,0.000000000000000e+00
	1.051636351009111e-02,3.210943655231942e-09
	1.000000000000000e+00,0.000000000000000e+00
	0.000000000000000e+00,0.000000000000000e+00
	1.262304202867889e-04,3.645061063526549e-13
	1.262304202052707e-04,3.464091716280045e-13
	-1.051636351009112e-06,-3.210943655231948e-13
	9.587003831610069e-05,1.782703095518520e-11
	-6.732289083249309e-05,-1.860988481310166e-13
	-2.749551113259849e-05,-1.731983774153099e-11
	1.051636351009111e-06,3.210943655231942e-13
	-9.587003831607044e-05,-1.782703095518519e-11
	1.051636351009111e-06,3.210943655231942e-13
45		2.818382931264450e+00,0.000000000000000e+00
	1.051636351009111e-02,3.285736141007196e-09
	1.000000000000000e+00,0.000000000000000e+00
	0.000000000000000e+00,0.000000000000000e+00
	1.262304202867889e-04,3.729965442742150e-13
	1.262304202052707e-04,3.544780777887180e-13
	-1.051636351009112e-06,-3.285736141007178e-13
	9.587003831610069e-05,1.824227584961309e-11
	-6.732289083249309e-05,-1.904336471639895e-13
	-2.749551113259849e-05,-1.772326858834838e-11
	1.051636351009111e-06,3.285736141007196e-13
	-9.587003831607044e-05,-1.824227584961309e-11
	1.051636351009111e-06,3.285736141007196e-13
46		2.884031503126602e+00,0.000000000000000e+00
	1.051636351009112e-02,3.362270767576271e-09
	1.000000000000000e+00,0.000000000000000e+00
	0.000000000000000e+00,0.000000000000000e+00
	1.262304202867889e-04,3.816847499007422e-13
	1.262304202052707e-04,3.627349329183471e-13
	-1.051636351009109e-06,-3.362270767576259e-13
	9.587003831610069e-05,1.866719304016151e-11
	-6.732289083249309e-05,-1.948694166373762e-13
	-2.749551113259849e-05,-1.813609654676651e-11
	1.051636351009112e-06,3.362270767576271e-13
	-9.587003831607044e-05,-1.866719304016151e-11
	1.051636351009112e-06,3.362270767576271e-13
47		2.951209226666381e+00,0.000000000000000e+00
	1.051636351009112e-02,3.440588114611229e-09
	1.000000000000000e+00,0.000000000000000e+00
	0.000000000000000e+00,0.000000000000000e+00
	1.262304202867889e-04,3.905753298338618e-13
	1.262304202052707e-04,3.711841149107741e-13
	-1.051636351009109e-06,-3.440588114611247e-13
	9.587003831610069e-05,1.910200782354935e-11
	-6.732289083249309e-05,-1.994085084548657e-13
	-2.749551113259850e-05,-1.855854050363336e-11
	1.051636351009112e-06,3.440588114611229e-13
	-9.587003831607044e-05,-1.910200782354934e-11
	1.051636351009112e-06,3.440588114611229e-13
48		3.019951720402012e+00,0.000000000000000e+00
	1.051636351009112e-02,3.520729707006124e-09
	1.000000000000000e+00,0.000000000000000e+00
	0.000000000000000e+00,0.000000000000000e+00
	1.262304202867889e-04,3.996729979767350e-13
	1.262304202052707e-04,3.798301036341293e-13
	-1.051636351009109e-06,-3.520729707006119e-13
	9.587003831610070e-05,1.954695074433019e-11
	-6.732289083249309e-05,-2.040533293030216e-13
	-2.749551113259850e-05,-1.899082444432656e-11
	1.051636351009112e-06,3.520729707006124e-13
	-9.587003831607044e-05,-1.954695074433018e-11
	1.051636351009112e-06,3.520729707006124e-13
49		3.090295432513586e+00,0.000000000000000e+00
	1.051636351009112e-02,3.602738036894038e-09
	1.000000000000000e+00,0.000000000000000e+00
	0.000000000000000e+00,0.000000000000000e+00