Title: * GA CMOS Amp | W=2.303329955342475e-06 L=9.600785199451401e-07 Vbias=1.4609172633325669
Date: Sat Sep  6 22:15:44 2025
Plotname: AC Analysis
Flags: complex forward log
No. Variables: 13
No. Points:          901
Offset:    0.0000000000000000e+00
Command: Linear Technology Corporation LTspice
Variables:
	0	frequency	frequency
	1	V(out)	voltage
	2	V(g)	voltage
	3	V(vdd)	voltage
	4	V(m1#dbody)	voltage
	5	V(m1#sbody)	voltage
	6	Id(M1)	device_current
	7	Ig(M1)	device_current
	8	Ib(M1)	device_current
	9	Is(M1)	device_current
	10	I(Rload)	device_current
	11	I(Vg)	device_current
	12	I(Vdd)	device_current
Values:
0		1.000000000000000e+00,0.000000000000000e+00
	-3.479333580757944e-01,1.466298824231092e-09
	1.000000000000000e+00,0.000000000000000e+00
	0.000000000000000e+00,0.000000000000000e+00
	6.276186606764696e-05,1.333059199689108e-13
	6.276186867714254e-05,1.487987702909916e-13
	3.479333580757943e-05,-1.466298824231092e-13
	3.781593863677036e-05,4.905105904934969e-13
	-3.347299647913786e-05,-7.832866746406565e-14
	-3.913627796521194e-05,-2.655520406063221e-13
	-3.479333580757944e-05,1.466298824231092e-13
	-3.781593863649846e-05,-4.905105904934970e-13
	-3.479333580757944e-05,1.466298824231092e-13
1		1.023292992280754e+00,0.000000000000000e+00
	-3.479333580757944e-01,1.500453311425186e-09
	1.000000000000000e+00,0.000000000000000e+00
	0.000000000000000e+00,0.000000000000000e+00
	6.276186606764696e-05,1.364110137337255e-13
	6.276186867714254e-05,1.522647388987654e-13
	3.479333580757943e-05,-1.500453311425186e-13
	3.781593863677036e-05,5.019360498914901e-13
	-3.347299647913786e-05,-8.015317651066788e-14
	-3.913627796521194e-05,-2.717375422383037e-13
	-3.479333580757944e-05,1.500453311425186e-13
	-3.781593863649846e-05,-5.019360498914902e-13
	-3.479333580757944e-05,1.500453311425186e-13
2		1.047128548050899e+00,0.000000000000000e+00
	-3.479333580757944e-01,1.535403358825845e-09
	1.000000000000000e+00,0.000000000000000e+00
	0.000000000000000e+00,0.000000000000000e+00
	6.276186606764696e-05,1.395884344236350e-13
	6.276186867714254e-05,1.558114402865654e-13
	3.479333580757943e-05,-1.535403358825844e-13
	3.781593863677036e-05,5.136276424270448e-13
	-3.347299647913786e-05,-8.202018383240878e-14
	-3.913627796521194e-05,-2.780671227120516e-13
	-3.479333580757944e-05,1.535403358825845e-13
	-3.781593863649846e-05,-5.136276424270447e-13
	-3.479333580757944e-05,1.535403358825845e-13
3		1.071519305237606e+00,0.000000000000000e+00
	-3.479333580757944e-01,1.571167497410819e-09
	1.000000000000000e+00,0.000000000000000e+00
	0.000000000000000e+00,0.000000000000000e+00
	6.276186606764696e-05,1.428398667491473e-13
	6.276186867714254e-05,1.594407549624136e-13
	3.479333580757943e-05,-1.571167497410818e-13
	3.781593863677036e-05,5.255915671372798e-13
	-3.347299647913786e-05,-8.393067934128313e-14
	-3.913627796521194e-05,-2.845441380549148e-13
	-3.479333580757944e-05,1.571167497410819e-13
	-3.781593863649846e-05,-5.255915671372799e-13
	-3.479333580757944e-05,1.571167497410819e-13
4		1.096478196143185e+00,0.000000000000000e+00
	-3.479333580757944e-01,1.607764689799781e-09
	1.000000000000000e+00,0.000000000000000e+00
	0.000000000000000e+00,0.000000000000000e+00
	6.276186606764696e-05,1.461670346627191e-13
	6.276186867714254e-05,1.631546072369906e-13
	3.479333580757943e-05,-1.607764689799780e-13
	3.781593863677036e-05,5.378341674534378e-13
	-3.347299647913786e-05,-8.588567600729805e-14
	-3.913627796521194e-05,-2.911720224661618e-13
	-3.479333580757944e-05,1.607764689799781e-13
	-3.781593863649846e-05,-5.378341674534379e-13
	-3.479333580757944e-05,1.607764689799781e-13
5		1.122018454301963e+00,0.000000000000000e+00
	-3.479333580757944e-01,1.645214340308556e-09
	1.000000000000000e+00,0.000000000000000e+00
	0.000000000000000e+00,0.000000000000000e+00
	6.276186606764696e-05,1.495717022728185e-13
	6.276186867714254e-05,1.669549662439313e-13
	3.479333580757943e-05,-1.645214340308555e-13
	3.781593863677036e-05,5.503619345642567e-13
	-3.347299647913786e-05,-8.788621039556341e-14
	-3.913627796521194e-05,-2.979542901378377e-13
	-3.479333580757944e-05,1.645214340308556e-13
	-3.781593863649846e-05,-5.503619345642567e-13
	-3.479333580757944e-05,1.645214340308556e-13
6		1.148153621496882e+00,0.000000000000000e+00
	-3.479333580757944e-01,1.683536305237549e-09
	1.000000000000000e+00,0.000000000000000e+00
	0.000000000000000e+00,0.000000000000000e+00
	6.276186606764696e-05,1.530556747792785e-13
	6.276186867714254e-05,1.708438469838848e-13
	3.479333580757943e-05,-1.683536305237549e-13
	3.781593863677036e-05,5.631815108576828e-13
	-3.347299647913786e-05,-8.993334321589199e-14
	-3.913627796521194e-05,-3.048945371180360e-13
	-3.479333580757944e-05,1.683536305237549e-13
	-3.781593863649846e-05,-5.631815108576829e-13
	-3.479333580757944e-05,1.683536305237549e-13
7		1.174897554939529e+00,0.000000000000000e+00
	-3.479333580757944e-01,1.722750903399816e-09
	1.000000000000000e+00,0.000000000000000e+00
	0.000000000000000e+00,0.000000000000000e+00
	6.276186606764696e-05,1.566207994304378e-13
	6.276186867714254e-05,1.748233113928947e-13
	3.479333580757943e-05,-1.722750903399816e-13
	3.781593863677036e-05,5.762996934427541e-13
	-3.347299647913786e-05,-9.202815988520216e-14
	-3.913627796521194e-05,-3.119964432175704e-13
	-3.479333580757944e-05,1.722750903399816e-13
	-3.781593863649846e-05,-5.762996934427542e-13
	-3.479333580757944e-05,1.722750903399816e-13
8		1.202264434617413e+00,0.000000000000000e+00
	-3.479333580757944e-01,1.762878926894371e-09
	1.000000000000000e+00,0.000000000000000e+00
	0.000000000000000e+00,0.000000000000000e+00
	6.276186606764696e-05,1.602689665025766e-13
	6.276186867714254e-05,1.788954694356653e-13
	3.479333580757943e-05,-1.762878926894370e-13
	3.781593863677036e-05,5.897234377535173e-13
	-3.347299647913786e-05,-9.417177110302019e-14
	-3.913627796521194e-05,-3.192637739610601e-13
	-3.479333580757944e-05,1.762878926894371e-13
	-3.781593863649846e-05,-5.897234377535172e-13
	-3.479333580757944e-05,1.762878926894371e-13
9		1.230268770812381e+00,0.000000000000000e+00
	-3.479333580757944e-01,1.803941652130425e-09
	1.000000000000000e+00,0.000000000000000e+00
	0.000000000000000e+00,0.000000000000000e+00
	6.276186606764696e-05,1.640021103021655e-13
	6.276186867714254e-05,1.830624802242921e-13
	3.479333580757943e-05,-1.803941652130425e-13
	3.781593863677036e-05,6.034598612368898e-13
	-3.347299647913786e-05,-9.636531344038779e-14
	-3.913627796521194e-05,-3.267003825834595e-13
	-3.479333580757944e-05,1.803941652130425e-13
	-3.781593863649846e-05,-6.034598612368898e-13
	-3.479333580757944e-05,1.803941652130425e-13
10		1.258925411794167e+00,0.000000000000000e+00
	-3.479333580757944e-01,1.845960851108430e-09
	1.000000000000000e+00,0.000000000000000e+00
	0.000000000000000e+00,0.000000000000000e+00
	6.276186606764696e-05,1.678222101914613e-13
	6.276186867714254e-05,1.873265531630524e-13
	3.479333580757943e-05,-1.845960851108430e-13
	3.781593863677036e-05,6.175162471264257e-13
	-3.347299647913786e-05,-9.860994994248722e-14
	-3.913627796521194e-05,-3.343102120730954e-13
	-3.479333580757944e-05,1.845960851108430e-13
	-3.781593863649846e-05,-6.175162471264257e-13
	-3.479333580757944e-05,1.845960851108430e-13
11		1.288249551693134e+00,0.000000000000000e+00
	-3.479333580757944e-01,1.888958802963874e-09
	1.000000000000000e+00,0.000000000000000e+00
	0.000000000000000e+00,0.000000000000000e+00
	6.276186606764696e-05,1.717312916379901e-13
	6.276186867714254e-05,1.916899491198596e-13
	3.479333580757943e-05,-1.888958802963873e-13
	3.781593863677036e-05,6.319000483039819e-13
	-3.347299647913786e-05,-1.009068707453031e-13
	-3.913627796521194e-05,-3.420972972622914e-13
	-3.479333580757944e-05,1.888958802963874e-13
	-3.781593863649846e-05,-6.319000483039819e-13
	-3.479333580757944e-05,1.888958802963874e-13
12		1.318256738556407e+00,0.000000000000000e+00
	-3.479333580757944e-01,1.932958305779974e-09
	1.000000000000000e+00,0.000000000000000e+00
	0.000000000000000e+00,0.000000000000000e+00
	6.276186606764696e-05,1.757314272884778e-13
	6.276186867714254e-05,1.961549816250066e-13
	3.479333580757943e-05,-1.932958305779973e-13
	3.781593863677036e-05,6.466188912513345e-13
	-3.347299647913786e-05,-1.032572937066485e-13
	-3.913627796521194e-05,-3.500657669666887e-13
	-3.479333580757944e-05,1.932958305779974e-13
	-3.781593863649846e-05,-6.466188912513346e-13
	-3.479333580757944e-05,1.932958305779974e-13
13		1.348962882591653e+00,0.000000000000000e+00
	-3.479333580757944e-01,1.977982688675526e-09
	1.000000000000000e+00,0.000000000000000e+00
	0.000000000000000e+00,0.000000000000000e+00
	6.276186606764696e-05,1.798247380677942e-13
	6.276186867714254e-05,2.007240180978294e-13
	3.479333580757943e-05,-1.977982688675526e-13
	3.781593863677036e-05,6.616805800938417e-13
	-3.347299647913786e-05,-1.056624650518891e-13
	-3.913627796521194e-05,-3.582198461744001e-13
	-3.479333580757944e-05,1.977982688675526e-13
	-3.781593863649846e-05,-6.616805800938418e-13
	-3.479333580757944e-05,1.977982688675526e-13
14		1.380384264602885e+00,0.000000000000000e+00
	-3.479333580757944e-01,2.024055824174310e-09
	1.000000000000000e+00,0.000000000000000e+00
	0.000000000000000e+00,0.000000000000000e+00
	6.276186606764696e-05,1.840133943034960e-13
	6.276186867714254e-05,2.053994811019441e-13
	3.479333580757943e-05,-2.024055824174310e-13
	3.781593863677036e-05,6.770931007382925e-13
	-3.347299647913786e-05,-1.081236600347082e-13
	-3.913627796521194e-05,-3.665638582861534e-13
	-3.479333580757944e-05,2.024055824174311e-13
	-3.781593863649846e-05,-6.770931007382926e-13
	-3.479333580757944e-05,2.024055824174311e-13
15		1.412537544622754e+00,0.000000000000000e+00
	-3.479333580757944e-01,2.071202140862618e-09
	1.000000000000000e+00,0.000000000000000e+00
	0.000000000000000e+00,0.000000000000000e+00
	6.276186606764696e-05,1.882996168765626e-13
	6.276186867714254e-05,2.101838496297225e-13
	3.479333580757943e-05,-2.071202140862618e-13
	3.781593863677036e-05,6.928646251071414e-13
	-3.347299647913786e-05,-1.106421836132635e-13
	-3.913627796521194e-05,-3.751022274076162e-13
	-3.479333580757944e-05,2.071202140862619e-13
	-3.781593863649846e-05,-6.928646251071415e-13
	-3.479333580757944e-05,2.071202140862619e-13
16		1.445439770745927e+00,0.000000000000000e+00
	-3.479333580757944e-01,2.119446636341612e-09
	1.000000000000000e+00,0.000000000000000e+00
	0.000000000000000e+00,0.000000000000000e+00
	6.276186606764696e-05,1.926856783989374e-13
	6.276186867714254e-05,2.150796604166869e-13
	3.479333580757943e-05,-2.119446636341611e-13
	3.781593863677036e-05,7.090035154713696e-13
	-3.347299647913786e-05,-1.132193711420930e-13
	-3.913627796521194e-05,-3.838394806951154e-13
	-3.479333580757944e-05,2.119446636341612e-13
	-3.781593863649846e-05,-7.090035154713696e-13
	-3.479333580757944e-05,2.119446636341612e-13
17		1.479108388168207e+00,0.000000000000000e+00
	-3.479333580757944e-01,2.168814890481387e-09
	1.000000000000000e+00,0.000000000000000e+00
	0.000000000000000e+00,0.000000000000000e+00
	6.276186606764696e-05,1.971739044184956e-13
	6.276186867714254e-05,2.200895092865199e-13
	3.479333580757943e-05,-2.168814890481387e-13
	3.781593863677036e-05,7.255183288842717e-13
	-3.347299647913786e-05,-1.158565890801376e-13
	-3.913627796521194e-05,-3.927802507559953e-13
	-3.479333580757944e-05,2.168814890481388e-13
	-3.781593863649846e-05,-7.255183288842717e-13
	-3.479333580757944e-05,2.168814890481388e-13
18		1.513561248436208e+00,0.000000000000000e+00
	-3.479333580757944e-01,2.219333078983755e-09
	1.000000000000000e+00,0.000000000000000e+00
	0.000000000000000e+00,0.000000000000000e+00
	6.276186606764696e-05,2.017666746520818e-13
	6.276186867714254e-05,2.252160525274058e-13
	3.479333580757943e-05,-2.219333078983754e-13
	3.781593863677036e-05,7.424178217185187e-13
	-3.347299647913786e-05,-1.185552357152557e-13
	-3.913627796521194e-05,-4.019292781048875e-13
	-3.479333580757944e-05,2.219333078983755e-13
	-3.781593863649846e-05,-7.424178217185187e-13
	-3.479333580757944e-05,2.219333078983755e-13
19		1.548816618912481e+00,0.000000000000000e+00
	-3.479333580757944e-01,2.271027987260946e-09
	1.000000000000000e+00,0.000000000000000e+00
	0.000000000000000e+00,0.000000000000000e+00
	6.276186606764696e-05,2.064664242472662e-13
	6.276186867714254e-05,2.304620083004285e-13
	3.479333580757943e-05,-2.271027987260945e-13
	3.781593863677036e-05,7.597109543089024e-13
	-3.347299647913786e-05,-1.213167419056142e-13
	-3.913627796521194e-05,-4.112914136771936e-13
	-3.479333580757944e-05,2.271027987260946e-13
	-3.781593863649846e-05,-7.597109543089025e-13
	-3.479333580757944e-05,2.271027987260946e-13
20		1.584893192461113e+00,0.000000000000000e+00
	-3.479333580757944e-01,2.323927024637592e-09
	1.000000000000000e+00,0.000000000000000e+00
	0.000000000000000e+00,0.000000000000000e+00
	6.276186606764696e-05,2.112756450734926e-13
	6.276186867714254e-05,2.358301580807775e-13
	3.479333580757943e-05,-2.323927024637591e-13
	3.781593863677036e-05,7.774068957032239e-13
	-3.347299647913786e-05,-1.241425718383479e-13
	-3.913627796521194e-05,-4.208716214011170e-13
	-3.479333580757944e-05,2.323927024637592e-13
	-3.781593863649846e-05,-7.774068957032241e-13
	-3.479333580757944e-05,2.323927024637592e-13
21		1.621810097358929e+00,0.000000000000000e+00
	-3.479333580757944e-01,2.378058238883511e-09
	1.000000000000000e+00,0.000000000000000e+00
	0.000000000000000e+00,0.000000000000000e+00
	6.276186606764696e-05,2.161968870433009e-13
	6.276186867714254e-05,2.413233481325221e-13
	3.479333580757943e-05,-2.378058238883510e-13
	3.781593863677036e-05,7.955150285238441e-13
	-3.347299647913786e-05,-1.270342238058915e-13
	-3.913627796521194e-05,-4.306749808296016e-13
	-3.479333580757944e-05,2.378058238883511e-13
	-3.781593863649846e-05,-7.955150285238440e-13
	-3.479333580757944e-05,2.378058238883511e-13
22		1.659586907437560e+00,0.000000000000000e+00
	-3.479333580757944e-01,2.433450331085008e-09
	1.000000000000000e+00,0.000000000000000e+00
	0.000000000000000e+00,0.000000000000000e+00
	6.276186606764696e-05,2.212327594643236e-13
	6.276186867714254e-05,2.469444910177387e-13
	3.479333580757943e-05,-2.433450331085008e-13
	3.781593863677036e-05,8.140449539424741e-13
	-3.347299647913786e-05,-1.299932310003937e-13
	-3.913627796521194e-05,-4.407066898335795e-13
	-3.479333580757944e-05,2.433450331085008e-13
	-3.781593863649846e-05,-8.140449539424741e-13
	-3.479333580757944e-05,2.433450331085008e-13
23		1.698243652461743e+00,0.000000000000000e+00
	-3.479333580757944e-01,2.490132670862570e-09
	1.000000000000000e+00,0.000000000000000e+00
	0.000000000000000e+00,0.000000000000000e+00
	6.276186606764696e-05,2.263859324227760e-13
	6.276186867714254e-05,2.526965671407897e-13
	3.479333580757943e-05,-2.490132670862570e-13
	3.781593863677036e-05,8.330064967708429e-13
	-3.347299647913786e-05,-1.330211623266362e-13
	-3.913627796521194e-05,-4.509720673579498e-13
	-3.479333580757944e-05,2.490132670862570e-13
	-3.781593863649846e-05,-8.330064967708432e-13
	-3.479333580757944e-05,2.490132670862570e-13
24		1.737800828749374e+00,0.000000000000000e+00
	-3.479333580757944e-01,2.548135311943025e-09
	1.000000000000000e+00,0.000000000000000e+00
	0.000000000000000e+00,0.000000000000000e+00
	6.276186606764696e-05,2.316591381991709e-13
	6.276186867714254e-05,2.585826263285730e-13
	3.479333580757943e-05,-2.548135311943025e-13
	3.781593863677036e-05,8.524097106699440e-13
	-3.347299647913786e-05,-1.361196232338874e-13
	-3.913627796521194e-05,-4.614765562417541e-13
	-3.479333580757944e-05,2.548135311943026e-13
	-3.781593863649846e-05,-8.524097106699442e-13
	-3.479333580757944e-05,2.548135311943026e-13
25		1.778279410038922e+00,0.000000000000000e+00
	-3.479333580757944e-01,2.607489008094431e-09
	1.000000000000000e+00,0.000000000000000e+00
	0.000000000000000e+00,0.000000000000000e+00
	6.276186606764696e-05,2.370551727170104e-13
	6.276186867714254e-05,2.646057894475816e-13
	3.479333580757943e-05,-2.607489008094430e-13
	3.781593863677036e-05,8.722648834806189e-13
	-3.347299647913786e-05,-1.392902565671335e-13
	-3.913627796521194e-05,-4.722257261040424e-13
	-3.479333580757944e-05,2.607489008094432e-13
	-3.781593863649846e-05,-8.722648834806190e-13
	-3.479333580757944e-05,2.607489008094432e-13
26		1.819700858609982e+00,0.000000000000000e+00
	-3.479333580757944e-01,2.668225229432126e-09
	1.000000000000000e+00,0.000000000000000e+00
	0.000000000000000e+00,0.000000000000000e+00
	6.276186606764696e-05,2.425768970252206e-13
	6.276186867714254e-05,2.707692500586270e-13
	3.479333580757943e-05,-2.668225229432126e-13
	3.781593863677036e-05,8.925825426783060e-13
	-3.347299647913786e-05,-1.425347434381361e-13
	-3.913627796521194e-05,-4.832252762969574e-13
	-3.479333580757944e-05,2.668225229432126e-13
	-3.781593863649846e-05,-8.925825426783059e-13
	-3.479333580757944e-05,2.668225229432126e-13
27		1.862087136662866e+00,0.000000000000000e+00
	-3.479333580757944e-01,2.730376179104602e-09
	1.000000000000000e+00,0.000000000000000e+00
	0.000000000000000e+00,0.000000000000000e+00
	6.276186606764696e-05,2.482272388151183e-13
	6.276186867714254e-05,2.770762761101082e-13
	3.479333580757943e-05,-2.730376179104601e-13
	3.781593863677036e-05,9.133734609548474e-13
	-3.347299647913786e-05,-1.458548041167798e-13
	-3.913627796521194e-05,-4.944810389276075e-13
	-3.479333580757944e-05,2.730376179104602e-13
	-3.781593863649846e-05,-9.133734609548474e-13
	-3.479333580757944e-05,2.730376179104602e-13
28		1.905460717963246e+00,0.000000000000000e+00
	-3.479333580757944e-01,2.793974810368040e-09
	1.000000000000000e+00,0.000000000000000e+00
	0.000000000000000e+00,0.000000000000000e+00
	6.276186606764696e-05,2.540091939727117e-13
	6.276186867714254e-05,2.835302116707209e-13
	3.479333580757943e-05,-2.793974810368040e-13
	3.781593863677036e-05,9.346486619303144e-13
	-3.347299647913786e-05,-1.492521989431828e-13
	-3.913627796521194e-05,-5.059989819503275e-13
	-3.479333580757944e-05,2.793974810368040e-13
	-3.781593863649846e-05,-9.346486619303144e-13
	-3.479333580757944e-05,2.793974810368040e-13
29		1.949844599758044e+00,0.000000000000000e+00
	-3.479333580757944e-01,2.859054844058564e-09
	1.000000000000000e+00,0.000000000000000e+00
	0.000000000000000e+00,0.000000000000000e+00
	6.276186606764696e-05,2.599258281671587e-13
	6.276186867714254e-05,2.901344787025277e-13
	3.479333580757943e-05,-2.859054844058564e-13
	3.781593863677036e-05,9.564194259978744e-13
	-3.347299647913786e-05,-1.527287292610520e-13
	-3.913627796521194e-05,-5.177852123309661e-13
	-3.479333580757944e-05,2.859054844058564e-13
	-3.781593863649846e-05,-9.564194259978746e-13
	-3.479333580757944e-05,2.859054844058564e-13
30		1.995262314968878e+00,0.000000000000000e+00
	-3.479333580757944e-01,2.925650786471473e-09
	1.000000000000000e+00,0.000000000000000e+00
	0.000000000000000e+00,0.000000000000000e+00
	6.276186606764696e-05,2.659802784762250e-13
	6.276186867714254e-05,2.968925788753263e-13
	3.479333580757943e-05,-2.925650786471472e-13
	3.781593863677036e-05,9.786972963048062e-13
	-3.347299647913786e-05,-1.562862383727791e-13
	-3.913627796521194e-05,-5.298459792848799e-13
	-3.479333580757944e-05,2.925650786471473e-13
	-3.781593863649846e-05,-9.786972963048062e-13
	-3.479333580757944e-05,2.925650786471473e-13
31		2.041737944669527e+00,0.000000000000000e+00
	-3.479333580757944e-01,2.993797947656934e-09
	1.000000000000000e+00,0.000000000000000e+00
	0.000000000000000e+00,0.000000000000000e+00
	6.276186606764696e-05,2.721757550496045e-13
	6.276186867714254e-05,3.038080954232824e-13
	3.479333580757943e-05,-2.993797947656934e-13
	3.781593863677036e-05,1.001494084872829e-12
	-3.347299647913786e-05,-1.599266125167843e-13
	-3.913627796521194e-05,-5.421876775903510e-13
	-3.479333580757944e-05,2.993797947656934e-13
	-3.781593863649846e-05,-1.001494084872829e-12
	-3.479333580757944e-05,2.993797947656934e-13
32		2.089296130854037e+00,0.000000000000000e+00
	-3.479333580757944e-01,3.063532460141846e-09
	1.000000000000000e+00,0.000000000000000e+00
	0.000000000000000e+00,0.000000000000000e+00
	6.276186606764696e-05,2.785155428109835e-13
	6.276186867714254e-05,3.108846950448076e-13
	3.479333580757943e-05,-3.063532460141845e-13
	3.781593863677036e-05,1.024821878860992e-12
	-3.347299647913786e-05,-1.636517818676249e-13
	-3.913627796521194e-05,-5.548168509791832e-13
	-3.479333580757944e-05,3.063532460141846e-13
	-3.781593863649846e-05,-1.024821878860992e-12
	-3.479333580757944e-05,3.063532460141846e-13
33		2.137962089502230e+00,0.000000000000000e+00
	-3.479333580757944e-01,3.134891298087769e-09
	1.000000000000000e+00,0.000000000000000e+00
	0.000000000000000e+00,0.000000000000000e+00
	6.276186606764696e-05,2.850030031997496e-13
	6.276186867714254e-05,3.181261298466908e-13
	3.479333580757943e-05,-3.134891298087768e-13
	3.781593863677036e-05,1.048693046974450e-12
	-3.347299647913786e-05,-1.674637215593991e-13
	-3.913627796521194e-05,-5.677401956062736e-13
	-3.479333580757944e-05,3.134891298087769e-13
	-3.781593863649846e-05,-1.048693046974449e-12
	-3.479333580757944e-05,3.134891298087769e-13
34		2.187761623949550e+00,0.000000000000000e+00
	-3.479333580757944e-01,3.207912296895130e-09
	1.000000000000000e+00,0.000000000000000e+00
	0.000000000000000e+00,0.000000000000000e+00
	6.276186606764696e-05,2.916415759532731e-13
	6.276186867714254e-05,3.255362393335160e-13
	3.479333580757943e-05,-3.207912296895130e-13
	3.781593863677036e-05,1.073120246022506e-12
	-3.347299647913786e-05,-1.713644527329886e-13
	-3.913627796521194e-05,-5.809645636000043e-13
	-3.479333580757944e-05,3.207912296895131e-13
	-3.781593863649846e-05,-1.073120246022506e-12
	-3.479333580757944e-05,3.207912296895131e-13
35		2.238721138568337e+00,0.000000000000000e+00
	-3.479333580757944e-01,3.282634173264044e-09
	1.000000000000000e+00,0.000000000000000e+00
	0.000000000000000e+00,0.000000000000000e+00
	6.276186606764696e-05,2.984347809306996e-13
	6.276186867714254e-05,3.331189524434173e-13
	3.479333580757943e-05,-3.282634173264044e-13
	3.781593863677036e-05,1.098116427629429e-12
	-3.347299647913786e-05,-1.753560436076937e-13
	-3.913627796521194e-05,-5.944969666953308e-13
	-3.479333580757944e-05,3.282634173264045e-13
	-3.781593863649846e-05,-1.098116427629429e-12
	-3.479333580757944e-05,3.282634173264045e-13
36		2.290867652767770e+00,0.000000000000000e+00
	-3.479333580757944e-01,3.359096545722423e-09
	1.000000000000000e+00,0.000000000000000e+00
	0.000000000000000e+00,0.000000000000000e+00
	6.276186606764696e-05,3.053862199792271e-13
	6.276186867714254e-05,3.408782896312547e-13
	3.479333580757943e-05,-3.359096545722423e-13
	3.781593863677036e-05,1.123694845101571e-12
	-3.347299647913786e-05,-1.794406105778313e-13
	-3.913627796521194e-05,-6.083445799514970e-13
	-3.479333580757944e-05,3.359096545722424e-13
	-3.781593863649846e-05,-1.123694845101571e-12
	-3.479333580757944e-05,3.359096545722424e-13
37		2.344228815319919e+00,0.000000000000000e+00
	-3.479333580757944e-01,3.437339955632244e-09
	1.000000000000000e+00,0.000000000000000e+00
	0.000000000000000e+00,0.000000000000000e+00
	6.276186606764696e-05,3.124995788438518e-13
	6.276186867714254e-05,3.488183650003122e-13
	3.479333580757943e-05,-3.437339955632243e-13
	3.781593863677036e-05,1.149869060454445e-12
	-3.347299647913786e-05,-1.836203193348745e-13
	-3.913627796521194e-05,-6.225147455563458e-13
	-3.479333580757944e-05,3.437339955632244e-13
	-3.781593863649846e-05,-1.149869060454445e-12
	-3.479333580757944e-05,3.437339955632244e-13
38		2.398832919019488e+00,0.000000000000000e+00
	-3.479333580757944e-01,3.517405888685114e-09
	1.000000000000000e+00,0.000000000000000e+00
	0.000000000000000e+00,0.000000000000000e+00
	6.276186606764696e-05,3.197786291216006e-13
	6.276186867714254e-05,3.569433884836498e-13
	3.479333580757943e-05,-3.517405888685113e-13
	3.781593863677036e-05,1.176652951603488e-12
	-3.347299647913786e-05,-1.878973860157314e-13
	-3.913627796521194e-05,-6.370149767192453e-13
	-3.479333580757944e-05,3.517405888685114e-13
	-3.781593863649846e-05,-1.176652951603488e-12
	-3.479333580757944e-05,3.517405888685114e-13
39		2.454708915685027e+00,0.000000000000000e+00
	-3.479333580757944e-01,3.599336796898535e-09
	1.000000000000000e+00,0.000000000000000e+00
	0.000000000000000e+00,0.000000000000000e+00
	6.276186606764696e-05,3.272272302612802e-13
	6.276186867714254e-05,3.652576680762657e-13
	3.479333580757943e-05,-3.599336796898534e-13
	3.781593863677036e-05,1.204060719722314e-12
	-3.347299647913786e-05,-1.922740783777697e-13
	-3.913627796521194e-05,-6.518529616546915e-13
	-3.479333580757944e-05,3.599336796898535e-13
	-3.781593863649846e-05,-1.204060719722314e-12
	-3.479333580757944e-05,3.599336796898535e-13
40		2.511886431509577e+00,0.000000000000000e+00
	-3.479333580757944e-01,3.683176121124527e-09
	1.000000000000000e+00,0.000000000000000e+00
	0.000000000000000e+00,0.000000000000000e+00
	6.276186606764696e-05,3.348493316098086e-13
	6.276186867714254e-05,3.737656121192522e-13
	3.479333580757943e-05,-3.683176121124526e-13
	3.781593863677036e-05,1.232106896772366e-12
	-3.347299647913786e-05,-1.967527170012121e-13
	-3.913627796521194e-05,-6.670365676587009e-13
	-3.479333580757944e-05,3.683176121124527e-13
	-3.781593863649846e-05,-1.232106896772366e-12
	-3.479333580757944e-05,3.683176121124527e-13
41		2.570395782768860e+00,0.000000000000000e+00
	-3.479333580757944e-01,3.768968314082538e-09
	1.000000000000000e+00,0.000000000000000e+00
	0.000000000000000e+00,0.000000000000000e+00
	6.276186606764696e-05,3.426489745062116e-13
	6.276186867714254e-05,3.824717316371574e-13
	3.479333580757943e-05,-3.768968314082537e-13
	3.781593863677036e-05,1.260806353207948e-12
	-3.347299647913786e-05,-2.013356765195388e-13
	-3.913627796521194e-05,-6.825738452801556e-13
	-3.479333580757944e-05,3.768968314082538e-13
	-3.781593863649846e-05,-1.260806353207948e-12
	-3.479333580757944e-05,3.768968314082538e-13
42		2.630267991895378e+00,0.000000000000000e+00
	-3.479333580757944e-01,3.856758863928869e-09
	1.000000000000000e+00,0.000000000000000e+00
	0.000000000000000e+00,0.000000000000000e+00
	6.276186606764696e-05,3.506302944243931e-13
	6.276186867714254e-05,3.913806427297883e-13
	3.479333580757943e-05,-3.856758863928868e-13
	3.781593863677036e-05,1.290174305860747e-12
	-3.347299647913786e-05,-2.060253868785488e-13
	-3.913627796521194e-05,-6.984730325893109e-13
	-3.479333580757944e-05,3.856758863928869e-13
	-3.781593863649846e-05,-1.290174305860747e-12
	-3.479333580757944e-05,3.856758863928869e-13
43		2.691534803926912e+00,0.000000000000000e+00
	-3.479333580757944e-01,3.946594318375094e-09
	1.000000000000000e+00,0.000000000000000e+00
	0.000000000000000e+00,0.000000000000000e+00
	6.276186606764696e-05,3.587975231658190e-13
	6.276186867714254e-05,4.004970690197299e-13
	3.479333580757943e-05,-3.946594318375094e-13
	3.781593863677036e-05,1.320226326007988e-12
	-3.347299647913786e-05,-2.108243346247503e-13
	-3.913627796521194e-05,-7.147425595457286e-13
	-3.479333580757944e-05,3.946594318375094e-13
	-3.781593863649846e-05,-1.320226326007988e-12
	-3.479333580757944e-05,3.946594318375094e-13
44		2.754228703338163e+00,0.000000000000000e+00
	-3.479333580757944e-01,4.038522309368273e-09
	1.000000000000000e+00,0.000000000000000e+00
	0.000000000000000e+00,0.000000000000000e+00
	6.276186606764696e-05,3.671549911032741e-13
	6.276186867714254e-05,4.098258441568710e-13
	3.479333580757943e-05,-4.038522309368273e-13
	3.781593863677036e-05,1.350978347628541e-12
	-3.347299647913786e-05,-2.157350642237597e-13
	-3.913627796521194e-05,-7.313910524679538e-13
	-3.479333580757944e-05,4.038522309368274e-13
	-3.781593863649846e-05,-1.350978347628541e-12
	-3.479333580757944e-05,4.038522309368274e-13
45		2.818382931264450e+00,0.000000000000000e+00
	-3.479333580757944e-01,4.132591578346041e-09
	1.000000000000000e+00,0.000000000000000e+00
	0.000000000000000e+00,0.000000000000000e+00
	6.276186606764696e-05,3.757071294768831e-13
	6.276186867714254e-05,4.193719143812706e-13
	3.479333580757943e-05,-4.132591578346041e-13
	3.781593863677036e-05,1.382446675851318e-12
	-3.347299647913786e-05,-2.207601794094117e-13
	-3.913627796521194e-05,-7.484273386073025e-13
	-3.479333580757944e-05,4.132591578346041e-13
	-3.781593863649846e-05,-1.382446675851319e-12
	-3.479333580757944e-05,4.132591578346041e-13
46		2.884031503126602e+00,0.000000000000000e+00
	-3.479333580757944e-01,4.228852002079965e-09
	1.000000000000000e+00,0.000000000000000e+00
	0.000000000000000e+00,0.000000000000000e+00
	6.276186606764696e-05,3.844584727436123e-13
	6.276186867714254e-05,4.291403411457185e-13
	3.479333580757943e-05,-4.228852002079963e-13
	3.781593863677036e-05,1.414647995600477e-12
	-3.347299647913786e-05,-2.259023445642930e-13
	-3.913627796521194e-05,-7.658604508281876e-13
	-3.479333580757944e-05,4.228852002079965e-13
	-3.781593863649846e-05,-1.414647995600477e-12
	-3.479333580757944e-05,4.228852002079965e-13
47		2.951209226666381e+00,0.000000000000000e+00
	-3.479333580757944e-01,4.327354619120865e-09
	1.000000000000000e+00,0.000000000000000e+00
	0.000000000000000e+00,0.000000000000000e+00
	6.276186606764696e-05,3.934136609814998e-13
	6.276186867714254e-05,4.391363037993859e-13
	3.479333580757943e-05,-4.327354619120866e-13
	3.781593863677036e-05,1.447599380441983e-12
	-3.347299647913786e-05,-2.311642861324333e-13
	-3.913627796521194e-05,-7.836996323974636e-13
	-3.479333580757944e-05,4.327354619120865e-13
	-3.781593863649846e-05,-1.447599380441983e-12
	-3.479333580757944e-05,4.327354619120865e-13
48		3.019951720402012e+00,0.000000000000000e+00
	-3.479333580757944e-01,4.428151656860134e-09
	1.000000000000000e+00,0.000000000000000e+00
	0.000000000000000e+00,0.000000000000000e+00
	6.276186606764696e-05,4.025774423498852e-13
	6.276186867714254e-05,4.493651023339841e-13
	3.479333580757943e-05,-4.428151656860132e-13
	3.781593863677036e-05,1.481318301636243e-12
	-3.347299647913786e-05,-2.365487940649022e-13
	-3.913627796521194e-05,-8.019543418853274e-13
	-3.479333580757944e-05,4.428151656860135e-13
	-3.781593863649846e-05,-1.481318301636242e-12
	-3.479333580757944e-05,4.428151656860135e-13
49		3.090295432513586e+00,0.000000000000000e+00