Title: * Amplificador CMOS - W=5.5918790762833195e-06 L=9.308646199116595e-07 Vbias=0.779795750373949
Date: Wed Jul 30 15:50:07 2025
Plotname: Operating Point
Flags: real
No. Variables: 12
No. Points:            1
Offset:    0.0000000000000000e+00
Command: Linear Technology Corporation LTspice
Variables:
	0	V(out)	voltage
	1	V(in)	voltage
	2	V(bias)	voltage
	3	V(vdd)	voltage
	4	Id(M1)	device_current
	5	Ig(M1)	device_current
	6	Ib(M1)	device_current
	7	Is(M1)	device_current
	8	I(Rload)	device_current
	9	I(Vbias)	device_current
	10	I(Vin)	device_current
	11	I(Vdd)	device_current
Values:
0		1.799999971697958e+00
	0.000000000000000e+00
	7.797957503739491e-01
	1.800000000000000e+00
	2.830204193021967e-12
	0.000000000000000e+00
	-2.599795722071906e-12
	-2.304084709500603e-13
	-2.830204204329334e-12
	2.304084709500607e-13
	0.000000000000000e+00
	-2.830204197086864e-12
