Title: * GA CMOS Amp | W=2.8730379610889412e-06 L=9.141173723362561e-07 Vbias=1.4767415907721777
Date: Sat Sep  6 22:15:00 2025
Plotname: AC Analysis
Flags: complex forward log
No. Variables: 13
No. Points:          901
Offset:    0.0000000000000000e+00
Command: Linear Technology Corporation LTspice
Variables:
	0	frequency	frequency
	1	V(out)	voltage
	2	V(g)	voltage
	3	V(vdd)	voltage
	4	V(m1#dbody)	voltage
	5	V(m1#sbody)	voltage
	6	Id(M1)	device_current
	7	Ig(M1)	device_current
	8	Ib(M1)	device_current
	9	Is(M1)	device_current
	10	I(Rload)	device_current
	11	I(Vg)	device_current
	12	I(Vdd)	device_current
Values:
0		1.000000000000000e+00,0.000000000000000e+00
	-1.326116930836554e-01,1.260594850758852e-09
	1.000000000000000e+00,0.000000000000000e+00
	0.000000000000000e+00,0.000000000000000e+00
	8.308527567698773e-05,1.383863515412028e-13
	8.308527667156781e-05,1.460415389029304e-13
	1.326116930836555e-05,-1.260594850758852e-13
	5.024539343886329e-05,6.018952585654242e-13
	-4.431214752535058e-05,-7.738207461378751e-14
	-1.919441522187826e-05,-3.984536988757515e-13
	-1.326116930836554e-05,1.260594850758852e-13
	-5.024539343878587e-05,-6.018952585654242e-13
	-1.326116930836554e-05,1.260594850758852e-13
1		1.023292992280754e+00,0.000000000000000e+00
	-1.326116930836554e-01,1.289957876886736e-09
	1.000000000000000e+00,0.000000000000000e+00
	0.000000000000000e+00,0.000000000000000e+00
	8.308527567698773e-05,1.416097837594138e-13
	8.308527667156781e-05,1.494432833412659e-13
	1.326116930836555e-05,-1.289957876886737e-13
	5.024539343886329e-05,6.159152001770112e-13
	-4.431214752535058e-05,-7.918453468043522e-14
	-1.919441522187826e-05,-4.077348778079024e-13
	-1.326116930836554e-05,1.289957876886736e-13
	-5.024539343878587e-05,-6.159152001770112e-13
	-1.326116930836554e-05,1.289957876886736e-13
2		1.047128548050899e+00,0.000000000000000e+00
	-1.326116930836554e-01,1.320004855755557e-09
	1.000000000000000e+00,0.000000000000000e+00
	0.000000000000000e+00,0.000000000000000e+00
	8.308527567698773e-05,1.449082993594010e-13
	8.308527667156781e-05,1.529242645865445e-13
	1.326116930836555e-05,-1.320004855755557e-13
	5.024539343886329e-05,6.302617081803334e-13
	-4.431214752535058e-05,-8.102897943550169e-14
	-1.919441522187826e-05,-4.172322431692760e-13
	-1.326116930836554e-05,1.320004855755557e-13
	-5.024539343878587e-05,-6.302617081803335e-13
	-1.326116930836554e-05,1.320004855755557e-13
3		1.071519305237606e+00,0.000000000000000e+00
	-1.326116930836554e-01,1.350751718671229e-09
	1.000000000000000e+00,0.000000000000000e+00
	0.000000000000000e+00,0.000000000000000e+00
	8.308527567698773e-05,1.482836472577967e-13
	8.308527667156781e-05,1.564863283010988e-13
	1.326116930836555e-05,-1.350751718671229e-13
	5.024539343886329e-05,6.449423892838328e-13
	-4.431214752535058e-05,-8.291638682801020e-14
	-1.919441522187826e-05,-4.269508305886996e-13
	-1.326116930836554e-05,1.350751718671229e-13
	-5.024539343878587e-05,-6.449423892838326e-13
	-1.326116930836554e-05,1.350751718671229e-13
4		1.096478196143185e+00,0.000000000000000e+00
	-1.326116930836554e-01,1.382214768027453e-09
	1.000000000000000e+00,0.000000000000000e+00
	0.000000000000000e+00,0.000000000000000e+00
	8.308527567698773e-05,1.517376171087347e-13
	8.308527667156781e-05,1.601313631382599e-13
	1.326116930836555e-05,-1.382214768027453e-13
	5.024539343886329e-05,6.599650273789521e-13
	-4.431214752535058e-05,-8.484775758634308e-14
	-1.919441522187826e-05,-4.368957929898636e-13
	-1.326116930836554e-05,1.382214768027453e-13
	-5.024539343878587e-05,-6.599650273789521e-13
	-1.326116930836554e-05,1.382214768027453e-13
5		1.122018454301963e+00,0.000000000000000e+00
	-1.326116930836554e-01,1.414410685949461e-09
	1.000000000000000e+00,0.000000000000000e+00
	0.000000000000000e+00,0.000000000000000e+00
	8.308527567698773e-05,1.552720402527484e-13
	8.308527667156781e-05,1.638613017437460e-13
	1.326116930836555e-05,-1.414410685949462e-13
	5.024539343886329e-05,6.753375876672579e-13
	-4.431214752535058e-05,-8.682411574884107e-14
	-1.919441522187826e-05,-4.470724033234706e-13
	-1.326116930836554e-05,1.414410685949461e-13
	-5.024539343878587e-05,-6.753375876672578e-13
	-1.326116930836554e-05,1.414410685949461e-13
6		1.148153621496882e+00,0.000000000000000e+00
	-1.326116930836554e-01,1.447356543139098e-09
	1.000000000000000e+00,0.000000000000000e+00
	0.000000000000000e+00,0.000000000000000e+00
	8.308527567698773e-05,1.588887906877727e-13
	8.308527667156781e-05,1.676781217803774e-13
	1.326116930836555e-05,-1.447356543139098e-13
	5.024539343886329e-05,6.910682208836944e-13
	-4.431214752535058e-05,-8.884650920676212e-14
	-1.919441522187826e-05,-4.574860573630225e-13
	-1.326116930836554e-05,1.447356543139099e-13
	-5.024539343878587e-05,-6.910682208836944e-13
	-1.326116930836554e-05,1.447356543139099e-13
7		1.174897554939529e+00,0.000000000000000e+00
	-1.326116930836554e-01,1.481069807925936e-09
	1.000000000000000e+00,0.000000000000000e+00
	0.000000000000000e+00,0.000000000000000e+00
	8.308527567698773e-05,1.625897860627613e-13
	8.308527667156781e-05,1.715838469766591e-13
	1.326116930836555e-05,-1.481069807925936e-13
	5.024539343886329e-05,7.071652676182127e-13
	-4.431214752535058e-05,-9.091601025988718e-14
	-1.919441522187826e-05,-4.681422765657319e-13
	-1.326116930836554e-05,1.481069807925936e-13
	-5.024539343878587e-05,-7.071652676182128e-13
	-1.326116930836554e-05,1.481069807925936e-13
8		1.202264434617413e+00,0.000000000000000e+00
	-1.326116930836554e-01,1.515568355529213e-09
	1.000000000000000e+00,0.000000000000000e+00
	0.000000000000000e+00,0.000000000000000e+00
	8.308527567698773e-05,1.663769886944507e-13
	8.308527667156781e-05,1.755805481997885e-13
	1.326116930836555e-05,-1.515568355529213e-13
	5.024539343886329e-05,7.236372627380611e-13
	-4.431214752535058e-05,-9.303371618506770e-14
	-1.919441522187826e-05,-4.790467110000721e-13
	-1.326116930836554e-05,1.515568355529213e-13
	-5.024539343878587e-05,-7.236372627380611e-13
	-1.326116930836554e-05,1.515568355529213e-13
9		1.230268770812381e+00,0.000000000000000e+00
	-1.326116930836554e-01,1.550870477535510e-09
	1.000000000000000e+00,0.000000000000000e+00
	0.000000000000000e+00,0.000000000000000e+00
	8.308527567698773e-05,1.702524066078056e-13
	8.308527667156781e-05,1.796703445536568e-13
	1.326116930836555e-05,-1.550870477535510e-13
	5.024539343886329e-05,7.404929399130849e-13
	-4.431214752535058e-05,-9.520074981801633e-14
	-1.919441522187826e-05,-4.902051423415175e-13
	-1.326116930836554e-05,1.550870477535510e-13
	-5.024539343878587e-05,-7.404929399130849e-13
	-1.326116930836554e-05,1.550870477535510e-13
10		1.258925411794167e+00,0.000000000000000e+00
	-1.326116930836554e-01,1.586994891597194e-09
	1.000000000000000e+00,0.000000000000000e+00
	0.000000000000000e+00,0.000000000000000e+00
	8.308527567698773e-05,1.742180946007011e-13
	8.308527667156781e-05,1.838554045024255e-13
	1.326116930836555e-05,-1.586994891597194e-13
	5.024539343886329e-05,7.577412362464333e-13
	-4.431214752535058e-05,-9.741826014864942e-14
	-1.919441522187826e-05,-5.016234869380644e-13
	-1.326116930836554e-05,1.586994891597194e-13
	-5.024539343878587e-05,-7.577412362464333e-13
	-1.326116930836554e-05,1.586994891597194e-13
11		1.288249551693134e+00,0.000000000000000e+00
	-1.326116930836554e-01,1.623960751356764e-09
	1.000000000000000e+00,0.000000000000000e+00
	0.000000000000000e+00,0.000000000000000e+00
	8.308527567698773e-05,1.782761553334029e-13
	8.308527667156781e-05,1.881379470202755e-13
	1.326116930836555e-05,-1.623960751356764e-13
	5.024539343886329e-05,7.753912970131307e-13
	-4.431214752535058e-05,-9.968742293029641e-14
	-1.919441522187826e-05,-5.133077989471579e-13
	-1.326116930836554e-05,1.623960751356764e-13
	-5.024539343878587e-05,-7.753912970131304e-13
	-1.326116930836554e-05,1.623960751356764e-13
12		1.318256738556407e+00,0.000000000000000e+00
	-1.326116930836554e-01,1.661787656602364e-09
	1.000000000000000e+00,0.000000000000000e+00
	0.000000000000000e+00,0.000000000000000e+00
	8.308527567698773e-05,1.824287404434263e-13
	8.308527667156781e-05,1.925202427679357e-13
	1.326116930836555e-05,-1.661787656602365e-13
	5.024539343886329e-05,7.934524805090213e-13
	-4.431214752535058e-05,-1.020094413031001e-13
	-1.919441522187826e-05,-5.252642735456848e-13
	-1.326116930836554e-05,1.661787656602364e-13
	-5.024539343878587e-05,-7.934524805090212e-13
	-1.326116930836554e-05,1.661787656602364e-13
13		1.348962882591653e+00,0.000000000000000e+00
	-1.326116930836554e-01,1.700495663659856e-09
	1.000000000000000e+00,0.000000000000000e+00
	0.000000000000000e+00,0.000000000000000e+00
	8.308527567698773e-05,1.866780516863628e-13
	8.308527667156781e-05,1.970046152966181e-13
	1.326116930836555e-05,-1.700495663659857e-13
	5.024539343886329e-05,8.119343630126633e-13
	-4.431214752535058e-05,-1.043855464319372e-13
	-1.919441522187826e-05,-5.374992502147405e-13
	-1.326116930836554e-05,1.700495663659856e-13
	-5.024539343878587e-05,-8.119343630126632e-13
	-1.326116930836554e-05,1.700495663659856e-13
14		1.380384264602885e+00,0.000000000000000e+00
	-1.326116930836554e-01,1.740105296026941e-09
	1.000000000000000e+00,0.000000000000000e+00
	0.000000000000000e+00,0.000000000000000e+00
	8.308527567698773e-05,1.910263421032795e-13
	8.308527667156781e-05,2.015934422799952e-13
	1.326116930836555e-05,-1.740105296026941e-13
	5.024539343886329e-05,8.308467438627962e-13
	-4.431214752535058e-05,-1.068169981591986e-13
	-1.919441522187826e-05,-5.500192161009035e-13
	-1.326116930836554e-05,1.740105296026941e-13
	-5.024539343878587e-05,-8.308467438627962e-13
	-1.326116930836554e-05,1.740105296026941e-13
15		1.412537544622754e+00,0.000000000000000e+00
	-1.326116930836554e-01,1.780637555254996e-09
	1.000000000000000e+00,0.000000000000000e+00
	0.000000000000000e+00,0.000000000000000e+00
	8.308527567698773e-05,1.954759172153119e-13
	8.308527667156781e-05,2.062891567748738e-13
	1.326116930836555e-05,-1.780637555254996e-13
	5.024539343886329e-05,8.501996506540821e-13
	-4.431214752535058e-05,-1.093050856727742e-13
	-1.919441522187826e-05,-5.628308094558083e-13
	-1.326116930836554e-05,1.780637555254996e-13
	-5.024539343878587e-05,-8.501996506540821e-13
	-1.326116930836554e-05,1.780637555254996e-13
16		1.445439770745927e+00,0.000000000000000e+00
	-1.326116930836554e-01,1.822113932084371e-09
	1.000000000000000e+00,0.000000000000000e+00
	0.000000000000000e+00,0.000000000000000e+00
	8.308527567698773e-05,2.000291362460814e-13
	8.308527667156781e-05,2.110942485112342e-13
	1.326116930836555e-05,-1.822113932084371e-13
	5.024539343886329e-05,8.700033445538673e-13
	-4.431214752535058e-05,-1.118511281895973e-13
	-1.919441522187826e-05,-5.759408231558330e-13
	-1.326116930836554e-05,1.822113932084372e-13
	-5.024539343878587e-05,-8.700033445538672e-13
	-1.326116930836554e-05,1.822113932084372e-13
17		1.479108388168207e+00,0.000000000000000e+00
	-1.326116930836554e-01,1.864556417839067e-09
	1.000000000000000e+00,0.000000000000000e+00
	0.000000000000000e+00,0.000000000000000e+00
	8.308527567698773e-05,2.046884133725873e-13
	8.308527667156781e-05,2.160112652123179e-13
	1.326116930836555e-05,-1.864556417839067e-13
	5.024539343886329e-05,8.902683257427907e-13
	-4.431214752535058e-05,-1.144564756551112e-13
	-1.919441522187826e-05,-5.893562083037728e-13
	-1.326116930836554e-05,1.864556417839067e-13
	-5.024539343878587e-05,-8.902683257427908e-13
	-1.326116930836554e-05,1.864556417839067e-13
18		1.513561248436208e+00,0.000000000000000e+00
	-1.326116930836554e-01,1.907987516086823e-09
	1.000000000000000e+00,0.000000000000000e+00
	0.000000000000000e+00,0.000000000000000e+00
	8.308527567698773e-05,2.094562190052348e-13
	8.308527667156781e-05,2.210428139454644e-13
	1.326116930836555e-05,-1.907987516086824e-13
	5.024539343886329e-05,9.110053389821175e-13
	-4.431214752535058e-05,-1.171225094590280e-13
	-1.919441522187826e-05,-6.030840779144071e-13
	-1.326116930836554e-05,1.907987516086823e-13
	-5.024539343878587e-05,-9.110053389821175e-13
	-1.326116930836554e-05,1.907987516086823e-13
19		1.548816618912481e+00,0.000000000000000e+00
	-1.326116930836554e-01,1.952430254570808e-09
	1.000000000000000e+00,0.000000000000000e+00
	0.000000000000000e+00,0.000000000000000e+00
	8.308527567698773e-05,2.143350810976797e-13
	8.308527667156781e-05,2.261915625044123e-13
	1.326116930836555e-05,-1.952430254570809e-13
	5.024539343886329e-05,9.322253793107537e-13
	-4.431214752535058e-05,-1.198506431677597e-13
	-1.919441522187826e-05,-6.171317106859131e-13
	-1.326116930836554e-05,1.952430254570808e-13
	-5.024539343878587e-05,-9.322253793107537e-13
	-1.326116930836554e-05,1.952430254570808e-13
20		1.584893192461113e+00,0.000000000000000e+00
	-1.326116930836554e-01,1.997908197419237e-09
	1.000000000000000e+00,0.000000000000000e+00
	0.000000000000000e+00,0.000000000000000e+00
	8.308527567698773e-05,2.193275864871827e-13
	8.308527667156781e-05,2.314602408237992e-13
	1.326116930836555e-05,-1.997908197419237e-13
	5.024539343886329e-05,9.539396978749622e-13
	-4.431214752535058e-05,-1.226423232739097e-13
	-1.919441522187826e-05,-6.315065548591289e-13
	-1.326116930836554e-05,1.997908197419237e-13
	-5.024539343878587e-05,-9.539396978749620e-13
	-1.326116930836554e-05,1.997908197419237e-13
21		1.621810097358929e+00,0.000000000000000e+00
	-1.326116930836554e-01,2.044445457639379e-09
	1.000000000000000e+00,0.000000000000000e+00
	0.000000000000000e+00,0.000000000000000e+00
	8.308527567698773e-05,2.244363822661851e-13
	8.308527667156781e-05,2.368516424266094e-13
	1.326116930836555e-05,-2.044445457639379e-13
	5.024539343886329e-05,9.761598078938686e-13
	-4.431214752535058e-05,-1.254990299632227e-13
	-1.919441522187826e-05,-6.462162321667081e-13
	-1.326116930836554e-05,2.044445457639379e-13
	-5.024539343878587e-05,-9.761598078938684e-13
	-1.326116930836554e-05,2.044445457639379e-13
22		1.659586907437560e+00,0.000000000000000e+00
	-1.326116930836554e-01,2.092066709902596e-09
	1.000000000000000e+00,0.000000000000000e+00
	0.000000000000000e+00,0.000000000000000e+00
	8.308527567698773e-05,2.296641771858318e-13
	8.308527667156781e-05,2.423686259053365e-13
	1.326116930836555e-05,-2.092066709902596e-13
	5.024539343886329e-05,9.988974907639229e-13
	-4.431214752535058e-05,-1.284222778993982e-13
	-1.919441522187826e-05,-6.612685418742652e-13
	-1.326116930836554e-05,2.092066709902596e-13
	-5.024539343878587e-05,-9.988974907639229e-13
	-1.326116930836554e-05,2.092066709902596e-13
23		1.698243652461743e+00,0.000000000000000e+00
	-1.326116930836554e-01,2.140797203627180e-09
	1.000000000000000e+00,0.000000000000000e+00
	0.000000000000000e+00,0.000000000000000e+00
	8.308527567698773e-05,2.350137430921871e-13
	8.308527667156781e-05,2.480141164376464e-13
	1.326116930836555e-05,-2.140797203627180e-13
	5.024539343886329e-05,1.022164802305552e-12
	-4.431214752535058e-05,-1.314136170271857e-13
	-1.919441522187826e-05,-6.766714649156479e-13
	-1.326116930836554e-05,2.140797203627180e-13
	-5.024539343878587e-05,-1.022164802305552e-12
	-1.326116930836554e-05,2.140797203627180e-13
24		1.737800828749374e+00,0.000000000000000e+00
	-1.326116930836554e-01,2.190662776365927e-09
	1.000000000000000e+00,0.000000000000000e+00
	0.000000000000000e+00,0.000000000000000e+00
	8.308527567698773e-05,2.404879163959045e-13
	8.308527667156781e-05,2.537911073373465e-13
	1.326116930836555e-05,-2.190662776365927e-13
	5.024539343886329e-05,1.045974079155313e-12
	-4.431214752535058e-05,-1.344746333941859e-13
	-1.919441522187826e-05,-6.924331681245347e-13
	-1.326116930836554e-05,2.190662776365928e-13
	-5.024539343878587e-05,-1.045974079155313e-12
	-1.326116930836554e-05,2.190662776365928e-13
25		1.778279410038922e+00,0.000000000000000e+00
	-1.326116930836554e-01,2.241689867505554e-09
	1.000000000000000e+00,0.000000000000000e+00
	0.000000000000000e+00,0.000000000000000e+00
	8.308527567698773e-05,2.460895995761289e-13
	8.308527667156781e-05,2.597026616414794e-13
	1.326116930836555e-05,-2.241689867505554e-13
	5.024539343886329e-05,1.070337945306947e-12
	-4.431214752535058e-05,-1.376069499917939e-13
	-1.919441522187826e-05,-7.085620085645975e-13
	-1.326116930836554e-05,2.241689867505554e-13
	-5.024539343878587e-05,-1.070337945306947e-12
	-1.326116930836554e-05,2.241689867505554e-13
26		1.819700858609982e+00,0.000000000000000e+00
	-1.326116930836554e-01,2.293905532285206e-09
	1.000000000000000e+00,0.000000000000000e+00
	0.000000000000000e+00,0.000000000000000e+00
	8.308527567698773e-05,2.518217627194295e-13
	8.308527667156781e-05,2.657519137343856e-13
	1.326116930836555e-05,-2.293905532285206e-13
	5.024539343886329e-05,1.095269318804780e-12
	-4.431214752535058e-05,-1.408122276157308e-13
	-1.919441522187826e-05,-7.250665379605283e-13
	-1.326116930836554e-05,2.293905532285206e-13
	-5.024539343878587e-05,-1.095269318804780e-12
	-1.326116930836554e-05,2.293905532285206e-13
27		1.862087136662866e+00,0.000000000000000e+00
	-1.326116930836554e-01,2.347337456141504e-09
	1.000000000000000e+00,0.000000000000000e+00
	0.000000000000000e+00,0.000000000000000e+00
	8.308527567698773e-05,2.576874450945791e-13
	8.308527667156781e-05,2.719420710095963e-13
	1.326116930836555e-05,-2.347337456141505e-13
	5.024539343886329e-05,1.120781418593046e-12
	-4.431214752535058e-05,-1.440921657466198e-13
	-1.919441522187826e-05,-7.419555072322759e-13
	-1.326116930836554e-05,2.347337456141504e-13
	-5.024539343878587e-05,-1.120781418593047e-12
	-1.326116930836554e-05,2.347337456141504e-13
28		1.905460717963246e+00,0.000000000000000e+00
	-1.326116930836554e-01,2.402013969387733e-09
	1.000000000000000e+00,0.000000000000000e+00
	0.000000000000000e+00,0.000000000000000e+00
	8.308527567698773e-05,2.636897567640144e-13
	8.308527667156781e-05,2.782764155704351e-13
	1.326116930836555e-05,-2.402013969387733e-13
	5.024539343886329e-05,1.146887771524747e-12
	-4.431214752535058e-05,-1.474485034510731e-13
	-1.919441522187826e-05,-7.592378711349003e-13
	-1.326116930836554e-05,2.402013969387733e-13
	-5.024539343878587e-05,-1.146887771524746e-12
	-1.326116930836554e-05,2.402013969387733e-13
29		1.949844599758044e+00,0.000000000000000e+00
	-1.326116930836554e-01,2.457964062234945e-09
	1.000000000000000e+00,0.000000000000000e+00
	0.000000000000000e+00,0.000000000000000e+00
	8.308527567698773e-05,2.698318802328325e-13
	8.308527667156781e-05,2.847583059702331e-13
	1.326116930836555e-05,-2.457964062234945e-13
	5.024539343886329e-05,1.173602219533764e-12
	-4.431214752535058e-05,-1.508830203037676e-13
	-1.919441522187826e-05,-7.769227930065018e-13
	-1.326116930836554e-05,2.457964062234945e-13
	-5.024539343878587e-05,-1.173602219533764e-12
	-1.326116930836554e-05,2.457964062234945e-13
30		1.995262314968878e+00,0.000000000000000e+00
	-1.326116930836554e-01,2.515217400162955e-09
	1.000000000000000e+00,0.000000000000000e+00
	0.000000000000000e+00,0.000000000000000e+00
	8.308527567698773e-05,2.761170721361973e-13
	8.308527667156781e-05,2.913911789930785e-13
	1.326116930836555e-05,-2.515217400162955e-13
	5.024539343886329e-05,1.200938926974040e-12
	-4.431214752535058e-05,-1.543975373310002e-13
	-1.919441522187826e-05,-7.950196496267441e-13
	-1.326116930836554e-05,2.515217400162955e-13
	-5.024539343878587e-05,-1.200938926974040e-12
	-1.326116930836554e-05,2.515217400162955e-13
31		2.041737944669527e+00,0.000000000000000e+00
	-1.326116930836554e-01,2.573804339649369e-09
	1.000000000000000e+00,0.000000000000000e+00
	0.000000000000000e+00,0.000000000000000e+00
	8.308527567698773e-05,2.825486649660500e-13
	8.308527667156781e-05,2.981785514760439e-13
	1.326116930836555e-05,-2.573804339649369e-13
	5.024539343886329e-05,1.228912388129703e-12
	-4.431214752535058e-05,-1.579939179762185e-13
	-1.919441522187826e-05,-8.135380361885477e-13
	-1.326116930836554e-05,2.573804339649369e-13
	-5.024539343878587e-05,-1.228912388129703e-12
	-1.326116930836554e-05,2.573804339649369e-13
32		2.089296130854037e+00,0.000000000000000e+00
	-1.326116930836554e-01,2.633755944264993e-09
	1.000000000000000e+00,0.000000000000000e+00
	0.000000000000000e+00,0.000000000000000e+00
	8.308527567698773e-05,2.891300688380417e-13
	8.308527667156781e-05,3.051240221738620e-13
	1.326116930836555e-05,-2.633755944264993e-13
	5.024539343886329e-05,1.257537434900131e-12
	-4.431214752535058e-05,-1.616740690880447e-13
	-1.919441522187826e-05,-8.324877713855874e-13
	-1.326116930836554e-05,2.633755944264993e-13
	-5.024539343878587e-05,-1.257537434900131e-12
	-1.326116930836554e-05,2.633755944264993e-13
33		2.137962089502230e+00,0.000000000000000e+00
	-1.326116930836554e-01,2.695104001144148e-09
	1.000000000000000e+00,0.000000000000000e+00
	0.000000000000000e+00,0.000000000000000e+00
	8.308527567698773e-05,2.958647732996201e-13
	8.308527667156781e-05,3.122312736670304e-13
	1.326116930836555e-05,-2.695104001144147e-13
	5.024539343886329e-05,1.286829244664020e-12
	-4.431214752535058e-05,-1.654399419313107e-13
	-1.919441522187826e-05,-8.518789026182942e-13
	-1.326116930836554e-05,2.695104001144148e-13
	-5.024539343878587e-05,-1.286829244664019e-12
	-1.326116930836554e-05,2.695104001144148e-13
34		2.187761623949550e+00,0.000000000000000e+00
	-1.326116930836554e-01,2.757881037838627e-09
	1.000000000000000e+00,0.000000000000000e+00
	0.000000000000000e+00,0.000000000000000e+00
	8.308527567698773e-05,3.027563491802352e-13
	8.308527667156781e-05,3.195040743143665e-13
	1.326116930836555e-05,-2.757881037838627e-13
	5.024539343886329e-05,1.316803348326627e-12
	-4.431214752535058e-05,-1.692935332216450e-13
	-1.919441522187826e-05,-8.717217113211193e-13
	-1.326116930836554e-05,2.757881037838627e-13
	-5.024539343878587e-05,-1.316803348326627e-12
	-1.326116930836554e-05,2.757881037838627e-13
35		2.238721138568337e+00,0.000000000000000e+00
	-1.326116930836554e-01,2.822120339564241e-09
	1.000000000000000e+00,0.000000000000000e+00
	0.000000000000000e+00,0.000000000000000e+00
	8.308527567698773e-05,3.098084504846397e-13
	8.308527667156781e-05,3.269462802510406e-13
	1.326116930836555e-05,-2.822120339564241e-13
	5.024539343886329e-05,1.347475638554470e-12
	-4.431214752535058e-05,-1.732368861841584e-13
	-1.919441522187826e-05,-8.920267184138879e-13
	-1.326116930836554e-05,2.822120339564241e-13
	-5.024539343878587e-05,-1.347475638554470e-12
	-1.326116930836554e-05,2.822120339564241e-13
36		2.290867652767770e+00,0.000000000000000e+00
	-1.326116930836554e-01,2.887855966849070e-09
	1.000000000000000e+00,0.000000000000000e+00
	0.000000000000000e+00,0.000000000000000e+00
	8.308527567698773e-05,3.170248163302908e-13
	8.308527667156781e-05,3.345618374331492e-13
	1.326116930836555e-05,-2.887855966849069e-13
	5.024539343886329e-05,1.378862378201824e-12
	-4.431214752535058e-05,-1.772720916367879e-13
	-1.919441522187826e-05,-9.128046898801288e-13
	-1.326116930836554e-05,2.887855966849070e-13
	-5.024539343878587e-05,-1.378862378201823e-12
	-1.326116930836554e-05,2.887855966849070e-13
37		2.344228815319919e+00,0.000000000000000e+00
	-1.326116930836554e-01,2.955122773592815e-09
	1.000000000000000e+00,0.000000000000000e+00
	0.000000000000000e+00,0.000000000000000e+00
	8.308527567698773e-05,3.244092729298797e-13
	8.308527667156781e-05,3.423547837299145e-13
	1.326116930836555e-05,-2.955122773592814e-13
	5.024539343886329e-05,1.410980208933501e-12
	-4.431214752535058e-05,-1.814012890988767e-13
	-1.919441522187826e-05,-9.340666424753431e-13
	-1.326116930836554e-05,2.955122773592815e-13
	-5.024539343878587e-05,-1.410980208933501e-12
	-1.326116930836554e-05,2.955122773592815e-13
38		2.398832919019488e+00,0.000000000000000e+00
	-1.326116930836554e-01,3.023956425546793e-09
	1.000000000000000e+00,0.000000000000000e+00
	0.000000000000000e+00,0.000000000000000e+00
	8.308527567698773e-05,3.319657356200405e-13
	8.308527667156781e-05,3.503292510646147e-13
	1.326116930836555e-05,-3.023956425546793e-13
	5.024539343886329e-05,1.443846160048486e-12
	-4.431214752535058e-05,-1.856266679255757e-13
	-1.919441522187826e-05,-9.558238495682310e-13
	-1.326116930836554e-05,3.023956425546793e-13
	-5.024539343878587e-05,-1.443846160048486e-12
	-1.326116930836554e-05,3.023956425546793e-13
39		2.454708915685027e+00,0.000000000000000e+00
	-1.326116930836554e-01,3.094393419224391e-09
	1.000000000000000e+00,0.000000000000000e+00
	0.000000000000000e+00,0.000000000000000e+00
	8.308527567698773e-05,3.396982109373129e-13
	8.308527667156781e-05,3.584894676053852e-13
	1.326116930836555e-05,-3.094393419224391e-13
	5.024539343886329e-05,1.477477657509092e-12
	-4.431214752535058e-05,-1.899504684686683e-13
	-1.919441522187826e-05,-9.780878471179843e-13
	-1.326116930836554e-05,3.094393419224391e-13
	-5.024539343878587e-05,-1.477477657509092e-12
	-1.326116930836554e-05,3.094393419224391e-13
40		2.511886431509577e+00,0.000000000000000e+00
	-1.326116930836554e-01,3.166471101252001e-09
	1.000000000000000e+00,0.000000000000000e+00
	0.000000000000000e+00,0.000000000000000e+00
	8.308527567698773e-05,3.476107987424618e-13
	8.308527667156781e-05,3.668397600070490e-13
	1.326116930836555e-05,-3.166471101252001e-13
	5.024539343886329e-05,1.511892533180438e-12
	-4.431214752535058e-05,-1.943749832644346e-13
	-1.919441522187826e-05,-1.000870439790803e-12
	-1.326116930836554e-05,3.166471101252001e-13
	-5.024539343878587e-05,-1.511892533180438e-12
	-1.326116930836554e-05,3.166471101252001e-13
41		2.570395782768860e+00,0.000000000000000e+00
	-1.326116930836554e-01,3.240227688170694e-09
	1.000000000000000e+00,0.000000000000000e+00
	0.000000000000000e+00,0.000000000000000e+00
	8.308527567698773e-05,3.557076943942766e-13
	8.308527667156781e-05,3.753845557051669e-13
	1.326116930836555e-05,-3.240227688170694e-13
	5.024539343886329e-05,1.547109034285139e-12
	-4.431214752535058e-05,-1.989025582491847e-13
	-1.919441522187826e-05,-1.024183707218885e-12
	-1.326116930836554e-05,3.240227688170694e-13
	-5.024539343878587e-05,-1.547109034285139e-12
	-1.326116930836554e-05,3.240227688170694e-13
42		2.630267991895378e+00,0.000000000000000e+00
	-1.326116930836554e-01,3.315702286699140e-09
	1.000000000000000e+00,0.000000000000000e+00
	0.000000000000000e+00,0.000000000000000e+00
	8.308527567698773e-05,3.639931909740073e-13
	8.308527667156781e-05,3.841283852635216e-13
	1.326116930836555e-05,-3.315702286699139e-13
	5.024539343886329e-05,1.583145833078228e-12
	-4.431214752535058e-05,-2.035355940031052e-13
	-1.919441522187826e-05,-1.048040010405209e-12
	-1.326116930836554e-05,3.315702286699141e-13
	-5.024539343878587e-05,-1.583145833078228e-12
	-1.326116930836554e-05,3.315702286699141e-13
43		2.691534803926912e+00,0.000000000000000e+00
	-1.326116930836554e-01,3.392934914468502e-09
	1.000000000000000e+00,0.000000000000000e+00
	0.000000000000000e+00,0.000000000000000e+00
	8.308527567698773e-05,3.724716815616121e-13
	8.308527667156781e-05,3.930758847762834e-13
	1.326116930836555e-05,-3.392934914468502e-13
	5.024539343886329e-05,1.620022036747427e-12
	-4.431214752535058e-05,-2.082765470230783e-13
	-1.919441522187826e-05,-1.072451998277499e-12
	-1.326116930836554e-05,3.392934914468502e-13
	-5.024539343878587e-05,-1.620022036747427e-12
	-1.326116930836554e-05,3.392934914468502e-13
44		2.754228703338163e+00,0.000000000000000e+00
	-1.326116930836554e-01,3.471966521240317e-09
	1.000000000000000e+00,0.000000000000000e+00
	0.000000000000000e+00,0.000000000000000e+00
	8.308527567698773e-05,3.811476615650261e-13
	8.308527667156781e-05,4.022317983261279e-13
	1.326116930836555e-05,-3.471966521240318e-13
	5.024539343886329e-05,1.657757197544036e-12
	-4.431214752535058e-05,-2.131279310251490e-13
	-1.919441522187826e-05,-1.097432614394856e-12
	-1.326116930836554e-05,3.471966521240318e-13
	-5.024539343878587e-05,-1.657757197544037e-12
	-1.326116930836554e-05,3.471966521240318e-13
45		2.818382931264450e+00,0.000000000000000e+00
	-1.326116930836554e-01,3.552839010618605e-09
	1.000000000000000e+00,0.000000000000000e+00
	0.000000000000000e+00,0.000000000000000e+00
	8.308527567698773e-05,3.900257311036877e-13
	8.308527667156781e-05,4.116009804996123e-13
	1.326116930836555e-05,-3.552839010618606e-13
	5.024539343886329e-05,1.696371323149795e-12
	-4.431214752535058e-05,-2.180923182773309e-13
	-1.919441522187826e-05,-1.122995103810603e-12
	-1.326116930836554e-05,3.552839010618606e-13
	-5.024539343878587e-05,-1.696371323149794e-12
	-1.326116930836554e-05,3.552839010618606e-13
46		2.884031503126602e+00,0.000000000000000e+00
	-1.326116930836554e-01,3.635595262267707e-09
	1.000000000000000e+00,0.000000000000000e+00
	0.000000000000000e+00,0.000000000000000e+00
	8.308527567698773e-05,3.991105974475813e-13
	8.308527667156781e-05,4.211883989611404e-13
	1.326116930836555e-05,-3.635595262267707e-13
	5.024539343886329e-05,1.735884887285215e-12
	-4.431214752535058e-05,-2.231723409634564e-13
	-1.919441522187826e-05,-1.149153020094988e-12
	-1.326116930836554e-05,3.635595262267707e-13
	-5.024539343878587e-05,-1.735884887285215e-12
	-1.326116930836554e-05,3.635595262267707e-13
47		2.951209226666381e+00,0.000000000000000e+00
	-1.326116930836554e-01,3.720279154647654e-09
	1.000000000000000e+00,0.000000000000000e+00
	0.000000000000000e+00,0.000000000000000e+00
	8.308527567698773e-05,4.084070775130951e-13
	8.308527667156781e-05,4.309991370868856e-13
	1.326116930836555e-05,-3.720279154647655e-13
	5.024539343886329e-05,1.776318840565027e-12
	-4.431214752535058e-05,-2.283706925787961e-13
	-1.919441522187826e-05,-1.175920232521466e-12
	-1.326116930836554e-05,3.720279154647654e-13
	-5.024539343878587e-05,-1.776318840565027e-12
	-1.326116930836554e-05,3.720279154647654e-13
48		3.019951720402012e+00,0.000000000000000e+00
	-1.326116930836554e-01,3.806935588279112e-09
	1.000000000000000e+00,0.000000000000000e+00
	0.000000000000000e+00,0.000000000000000e+00
	8.308527567698773e-05,4.179201004170129e-13
	8.308527667156781e-05,4.410383966600621e-13
	1.326116930836555e-05,-3.806935588279114e-13
	5.024539343886329e-05,1.817694621606467e-12
	-4.431214752535058e-05,-2.336901293581844e-13
	-1.919441522187826e-05,-1.203310933420371e-12
	-1.326116930836554e-05,3.806935588279112e-13
	-5.024539343878587e-05,-1.817694621606467e-12
	-1.326116930836554e-05,3.806935588279112e-13
49		3.090295432513586e+00,0.000000000000000e+00