Title: * GA CMOS Amp | W=1e-06 L=9.07194498837069e-07 Vbias=1.0324069887197416
Date: Mon Sep  8 18:45:02 2025
Plotname: Operating Point
Flags: real
No. Variables: 10
No. Points:            1
Offset:    0.0000000000000000e+00
Command: Linear Technology Corporation LTspice
Variables:
	0	V(out)	voltage
	1	V(g)	voltage
	2	V(vdd)	voltage
	3	Id(M1)	device_current
	4	Ig(M1)	device_current
	5	Ib(M1)	device_current
	6	Is(M1)	device_current
	7	I(Rload)	device_current
	8	I(Vg)	device_current
	9	I(Vdd)	device_current
Values:
0		1.794411679793528e+00
	1.032406988719742e+00
	1.800000000000000e+00
	5.588320202731725e-07
	0.000000000000000e+00
	-1.804411679793529e-12
	-5.588302158614927e-07
	-5.588320206471709e-07
	0.000000000000000e+00
	-5.588320206471799e-07
