Title: * GA CMOS Amp | W=2.4440002573757037e-05 L=1e-06 Vbias=1.0613338047343408
Date: Sat Sep  6 22:07:22 2025
Plotname: Operating Point
Flags: real
No. Variables: 12
No. Points:            1
Offset:    0.0000000000000000e+00
Command: Linear Technology Corporation LTspice
Variables:
	0	V(out)	voltage
	1	V(g)	voltage
	2	V(vdd)	voltage
	3	V(m1#dbody)	voltage
	4	V(m1#sbody)	voltage
	5	Id(M1)	device_current
	6	Ig(M1)	device_current
	7	Ib(M1)	device_current
	8	Is(M1)	device_current
	9	I(Rload)	device_current
	10	I(Vg)	device_current
	11	I(Vdd)	device_current
Values:
0		7.483367780827686e-02
	1.061333804734341e+00
	1.800000000000000e+00
	1.520708858229757e-06
	1.520708226130583e-06
	1.725166313834564e-04
	3.547186001326718e-06
	-8.110444300228992e-07
	-1.752527729547602e-04
	-1.725166322191723e-04
	-3.547186000874003e-06
	-1.725166322191723e-04
