Title: * GA CMOS Amp | W=4.708583068031125e-05 L=8.465808237867929e-07 Vbias=1.2583047431515741
Date: Sat Sep  6 22:07:05 2025
Plotname: AC Analysis
Flags: complex forward log
No. Variables: 13
No. Points:          901
Offset:    0.0000000000000000e+00
Command: Linear Technology Corporation LTspice
Variables:
	0	frequency	frequency
	1	V(out)	voltage
	2	V(g)	voltage
	3	V(vdd)	voltage
	4	V(m1#dbody)	voltage
	5	V(m1#sbody)	voltage
	6	Id(M1)	device_current
	7	Ig(M1)	device_current
	8	Ib(M1)	device_current
	9	Is(M1)	device_current
	10	I(Rload)	device_current
	11	I(Vg)	device_current
	12	I(Vdd)	device_current
Values:
0		1.000000000000000e+00,0.000000000000000e+00
	8.291224228886417e-03,9.596479902802511e-10
	1.000000000000000e+00,0.000000000000000e+00
	0.000000000000000e+00,0.000000000000000e+00
	2.313205702350366e-04,1.413216229451105e-13
	2.313205701661664e-04,1.320664817142736e-13
	-8.291224228886414e-07,-9.596479902802428e-14
	1.730714247234855e-04,1.041341793987997e-11
	-1.233709708532414e-04,-7.121671396561458e-14
	-4.887133144735544e-05,-1.024623642688633e-11
	8.291224228886417e-07,9.596479902802511e-14
	-1.730714247234477e-04,-1.041341793987997e-11
	8.291224228886417e-07,9.596479902802511e-14
1		1.023292992280754e+00,0.000000000000000e+00
	8.291224228886417e-03,9.820010635100899e-10
	1.000000000000000e+00,0.000000000000000e+00
	0.000000000000000e+00,0.000000000000000e+00
	2.313205702350366e-04,1.446134264174746e-13
	2.313205701661664e-04,1.351427052533905e-13
	-8.291224228886414e-07,-9.820010635100851e-14
	1.730714247234855e-04,1.065597760356986e-11
	-1.233709708532414e-04,-7.287556433427630e-14
	-4.887133144735544e-05,-1.048490193288458e-11
	8.291224228886417e-07,9.820010635100899e-14
	-1.730714247234477e-04,-1.065597760356986e-11
	8.291224228886417e-07,9.820010635100899e-14
2		1.047128548050899e+00,0.000000000000000e+00
	8.291224228886417e-03,1.004874806702123e-09
	1.000000000000000e+00,0.000000000000000e+00
	0.000000000000000e+00,0.000000000000000e+00
	2.313205702350366e-04,1.479819058427102e-13
	2.313205701661664e-04,1.382905832436579e-13
	-8.291224228886414e-07,-1.004874806702127e-13
	1.730714247234855e-04,1.090418720763370e-11
	-1.233709708532414e-04,-7.457305429177020e-14
	-4.887133144735544e-05,-1.072912667267172e-11
	8.291224228886417e-07,1.004874806702123e-13
	-1.730714247234477e-04,-1.090418720763370e-11
	8.291224228886417e-07,1.004874806702123e-13
3		1.071519305237606e+00,0.000000000000000e+00
	8.291224228886417e-03,1.028281347817760e-09
	1.000000000000000e+00,0.000000000000000e+00
	0.000000000000000e+00,0.000000000000000e+00
	2.313205702350366e-04,1.514288472331958e-13
	2.313205701661664e-04,1.415117847316534e-13
	-8.291224228886414e-07,-1.028281347817751e-13
	1.730714247234855e-04,1.115817835608901e-11
	-1.233709708532414e-04,-7.631008386974068e-14
	-4.887133144735544e-05,-1.097904013743750e-11
	8.291224228886417e-07,1.028281347817760e-13
	-1.730714247234477e-04,-1.115817835608901e-11
	8.291224228886417e-07,1.028281347817760e-13
4		1.096478196143185e+00,0.000000000000000e+00
	8.291224228886417e-03,1.052233097314922e-09
	1.000000000000000e+00,0.000000000000000e+00
	0.000000000000000e+00,0.000000000000000e+00
	2.313205702350366e-04,1.549560782028821e-13
	2.313205701661664e-04,1.448080176410436e-13
	-8.291224228886414e-07,-1.052233097314912e-13
	1.730714247234855e-04,1.141808571840467e-11
	-1.233709708532414e-04,-7.808757406426222e-14
	-4.887133144735544e-05,-1.123477483460891e-11
	8.291224228886417e-07,1.052233097314922e-13
	-1.730714247234477e-04,-1.141808571840467e-11
	8.291224228886417e-07,1.052233097314922e-13
5		1.122018454301963e+00,0.000000000000000e+00
	8.291224228886417e-03,1.076742754728233e-09
	1.000000000000000e+00,0.000000000000000e+00
	0.000000000000000e+00,0.000000000000000e+00
	2.313205702350366e-04,1.585654689363177e-13
	2.313205701661664e-04,1.481810296781477e-13
	-8.291224228886414e-07,-1.076742754728227e-13
	1.730714247234855e-04,1.168404710090446e-11
	-1.233709708532414e-04,-7.990646732416389e-14
	-4.887133144735545e-05,-1.149646635810747e-11
	8.291224228886417e-07,1.076742754728233e-13
	-1.730714247234477e-04,-1.168404710090446e-11
	8.291224228886417e-07,1.076742754728233e-13
6		1.148153621496882e+00,0.000000000000000e+00
	8.291224228886417e-03,1.101823315402475e-09
	1.000000000000000e+00,0.000000000000000e+00
	0.000000000000000e+00,0.000000000000000e+00
	2.313205702350366e-04,1.622589331802456e-13
	2.313205701661664e-04,1.516326092585950e-13
	-8.291224228886414e-07,-1.101823315402469e-13
	1.730714247234855e-04,1.195620351983379e-11
	-1.233709708532414e-04,-8.176772805072802e-14
	-4.887133144735545e-05,-1.176425346024282e-11
	8.291224228886417e-07,1.101823315402475e-13
	-1.730714247234477e-04,-1.195620351983379e-11
	8.291224228886417e-07,1.101823315402475e-13
7		1.174897554939529e+00,0.000000000000000e+00
	8.291224228886417e-03,1.127488077382900e-09
	1.000000000000000e+00,0.000000000000000e+00
	0.000000000000000e+00,0.000000000000000e+00
	2.313205702350366e-04,1.660384292582964e-13
	2.313205701661664e-04,1.551645864555660e-13
	-8.291224228886414e-07,-1.127488077382896e-13
	1.730714247234855e-04,1.223469927612841e-11
	-1.233709708532414e-04,-8.367234310902839e-14
	-4.887133144735545e-05,-1.203827812528109e-11
	8.291224228886417e-07,1.127488077382900e-13
	-1.730714247234477e-04,-1.223469927612841e-11
	8.291224228886417e-07,1.127488077382900e-13
8		1.202264434617413e+00,0.000000000000000e+00
	8.291224228886417e-03,1.153750648466022e-09
	1.000000000000000e+00,0.000000000000000e+00
	0.000000000000000e+00,0.000000000000000e+00
	2.313205702350366e-04,1.699059611093185e-13
	2.313205701661664e-04,1.587788339701220e-13
	-8.291224228886414e-07,-1.153750648466014e-13
	1.730714247234855e-04,1.251968203192461e-11
	-1.233709708532414e-04,-8.562132235117961e-14
	-4.887133144735545e-05,-1.231868564472683e-11
	8.291224228886417e-07,1.153750648466022e-13
	-1.730714247234477e-04,-1.251968203192461e-11
	8.291224228886417e-07,1.153750648466022e-13
9		1.230268770812381e+00,0.000000000000000e+00
	8.291224228886417e-03,1.180624953414656e-09
	1.000000000000000e+00,0.000000000000000e+00
	0.000000000000000e+00,0.000000000000000e+00
	2.313205702350366e-04,1.738635793498920e-13
	2.313205701661664e-04,1.624772681241351e-13
	-8.291224228886414e-07,-1.180624953414664e-13
	1.730714247234855e-04,1.281130288885173e-11
	-1.233709708532414e-04,-8.761569915177361e-14
	-4.887133144735545e-05,-1.260562469435849e-11
	8.291224228886417e-07,1.180624953414656e-13
	-1.730714247234477e-04,-1.281130288885173e-11
	8.291224228886417e-07,1.180624953414656e-13
10		1.258925411794167e+00,0.000000000000000e+00
	8.291224228886417e-03,1.208125241341010e-09
	1.000000000000000e+00,0.000000000000000e+00
	0.000000000000000e+00,0.000000000000000e+00
	2.313205702350366e-04,1.779133823615933e-13
	2.313205701661664e-04,1.662618498763486e-13
	-8.291224228886414e-07,-1.208125241341010e-13
	1.730714247234855e-04,1.310971646814816e-11
	-1.233709708532414e-04,-8.965653095578873e-14
	-4.887133144735545e-05,-1.289924741305827e-11
	8.291224228886417e-07,1.208125241341010e-13
	-1.730714247234477e-04,-1.310971646814816e-11
	8.291224228886417e-07,1.208125241341010e-13
11		1.288249551693134e+00,0.000000000000000e+00
	8.291224228886417e-03,1.236266093261750e-09
	1.000000000000000e+00,0.000000000000000e+00
	0.000000000000000e+00,0.000000000000000e+00
	2.313205702350366e-04,1.820575174035847e-13
	2.313205701661664e-04,1.701345858621024e-13
	-8.291224228886414e-07,-1.236266093261746e-13
	1.730714247234855e-04,1.341508099264361e-11
	-1.233709708532414e-04,-9.174489983926112e-14
	-4.887133144735545e-05,-1.319970948347817e-11
	8.291224228886417e-07,1.236266093261750e-13
	-1.730714247234477e-04,-1.341508099264361e-11
	8.291224228886417e-07,1.236266093261750e-13
12		1.318256738556407e+00,0.000000000000000e+00
	8.291224228886417e-03,1.265062429829054e-09
	1.000000000000000e+00,0.000000000000000e+00
	0.000000000000000e+00,0.000000000000000e+00
	2.313205702350366e-04,1.862981817511197e-13
	2.313205701661664e-04,1.740975294572776e-13
	-8.291224228886482e-07,-1.265062429829048e-13
	1.730714247234855e-04,1.372755837065095e-11
	-1.233709708532414e-04,-9.388191308301557e-14
	-4.887133144735545e-05,-1.350717021458502e-11
	8.291224228886417e-07,1.265062429829054e-13
	-1.730714247234477e-04,-1.372755837065095e-11
	8.291224228886417e-07,1.265062429829054e-13
13		1.348962882591653e+00,0.000000000000000e+00
	8.291224228886417e-03,1.294529519241734e-09
	1.000000000000000e+00,0.000000000000000e+00
	0.000000000000000e+00,0.000000000000000e+00
	2.313205702350366e-04,1.906376238605670e-13
	2.313205701661664e-04,1.781527818670243e-13
	-8.291224228886482e-07,-1.294529519241729e-13
	1.730714247234855e-04,1.404731428181212e-11
	-1.233709708532414e-04,-9.606870375976071e-14
	-4.887133144735545e-05,-1.382179262612819e-11
	8.291224228886417e-07,1.294529519241734e-13
	-1.730714247234477e-04,-1.404731428181212e-11
	8.291224228886417e-07,1.294529519241734e-13
14		1.380384264602885e+00,0.000000000000000e+00
	8.291224228886417e-03,1.324682985340641e-09
	1.000000000000000e+00,0.000000000000000e+00
	0.000000000000000e+00,0.000000000000000e+00
	2.313205702350365e-04,1.950781445615725e-13
	2.313205701661664e-04,1.823024932398478e-13
	-8.291224228886482e-07,-1.324682985340618e-13
	1.730714247234855e-04,1.437451826494370e-11
	-1.233709708532414e-04,-9.830643133485886e-14
	-4.887133144735545e-05,-1.414374353507478e-11
	8.291224228886417e-07,1.324682985340641e-13
	-1.730714247234477e-04,-1.437451826494370e-11
	8.291224228886417e-07,1.324682985340641e-13
15		1.412537544622754e+00,0.000000000000000e+00
	8.291224228886417e-03,1.355538815892626e-09
	1.000000000000000e+00,0.000000000000000e+00
	0.000000000000000e+00,0.000000000000000e+00
	2.313205702350365e-04,1.996220982769891e-13
	2.313205701661664e-04,1.865488638076458e-13
	-8.291224228886482e-07,-1.355538815892646e-13
	1.730714247234855e-04,1.470934380792859e-11
	-1.233709708532414e-04,-1.005962822810902e-13
	-4.887133144735545e-05,-1.447319364405824e-11
	8.291224228886417e-07,1.355538815892626e-13
	-1.730714247234477e-04,-1.470934380792859e-11
	8.291224228886417e-07,1.355538815892626e-13
16		1.445439770745927e+00,0.000000000000000e+00
	8.291224228886417e-03,1.387113371067475e-09
	1.000000000000000e+00,0.000000000000000e+00
	0.000000000000000e+00,0.000000000000000e+00
	2.313205702350365e-04,2.042718942712229e-13
	2.313205701661664e-04,1.908941450523007e-13
	-8.291224228886482e-07,-1.387113371067454e-13
	1.730714247234855e-04,1.505196843970163e-11
	-1.233709708532414e-04,-1.029394707077362e-13
	-4.887133144735545e-05,-1.481031763188714e-11
	8.291224228886417e-07,1.387113371067475e-13
	-1.730714247234477e-04,-1.505196843970163e-11
	8.291224228886417e-07,1.387113371067475e-13
17		1.479108388168207e+00,0.000000000000000e+00
	8.291224228886417e-03,1.419423392112281e-09
	1.000000000000000e+00,0.000000000000000e+00
	0.000000000000000e+00,0.000000000000000e+00
	2.313205702350365e-04,2.090299979276575e-13
	2.313205701661664e-04,1.953406408994451e-13
	-8.291224228886482e-07,-1.419423392112261e-13
	1.730714247234855e-04,1.540257382437775e-11
	-1.233709708532414e-04,-1.053372390043164e-13
	-4.887133144735545e-05,-1.515529424616221e-11
	8.291224228886417e-07,1.419423392112281e-13
	-1.730714247234477e-04,-1.540257382437775e-11
	8.291224228886417e-07,1.419423392112281e-13
18		1.513561248436208e+00,0.000000000000000e+00
	8.291224228886418e-03,1.452486010227874e-09
	1.000000000000000e+00,0.000000000000000e+00
	0.000000000000000e+00,0.000000000000000e+00
	2.313205702350365e-04,2.138989320558326e-13
	2.313205701661664e-04,1.998907089400335e-13
	-8.291224228886346e-07,-1.452486010227874e-13
	1.730714247234855e-04,1.576134585757273e-11
	-1.233709708532414e-04,-1.077908584993200e-13
	-4.887133144735546e-05,-1.550830639805062e-11
	8.291224228886419e-07,1.452486010227874e-13
	-1.730714247234477e-04,-1.576134585757273e-11
	8.291224228886419e-07,1.452486010227874e-13
19		1.548816618912481e+00,0.000000000000000e+00
	8.291224228886418e-03,1.486318755652015e-09
	1.000000000000000e+00,0.000000000000000e+00
	0.000000000000000e+00,0.000000000000000e+00
	2.313205702350365e-04,2.188812782290706e-13
	2.313205701661664e-04,2.045467616803681e-13
	-8.291224228886346e-07,-1.486318755652021e-13
	1.730714247234855e-04,1.612847476496746e-11
	-1.233709708532414e-04,-1.103016301342804e-13
	-4.887133144735546e-05,-1.586954125926798e-11
	8.291224228886419e-07,1.486318755652015e-13
	-1.730714247234477e-04,-1.612847476496746e-11
	8.291224228886419e-07,1.486318755652015e-13
20		1.584893192461113e+00,0.000000000000000e+00
	8.291224228886418e-03,1.520939566954158e-09
	1.000000000000000e+00,0.000000000000000e+00
	0.000000000000000e+00,0.000000000000000e+00
	2.313205702350365e-04,2.239796781532619e-13
	2.313205701661664e-04,2.093112678212422e-13
	-8.291224228886346e-07,-1.520939566954142e-13
	1.730714247234855e-04,1.650415520316819e-11
	-1.233709708532414e-04,-1.128708851535528e-13
	-4.887133144735546e-05,-1.623919036131922e-11
	8.291224228886419e-07,1.520939566954158e-13
	-1.730714247234477e-04,-1.650415520316819e-11
	8.291224228886419e-07,1.520939566954158e-13
21		1.621810097358929e+00,0.000000000000000e+00
	8.291224228886418e-03,1.556366800546714e-09
	1.000000000000000e+00,0.000000000000000e+00
	0.000000000000000e+00,0.000000000000000e+00
	2.313205702350365e-04,2.291968350675316e-13
	2.313205701661664e-04,2.141867535668773e-13
	-8.291224228886346e-07,-1.556366800546713e-13
	1.730714247234855e-04,1.688858636291595e-11
	-1.233709708532414e-04,-1.154999858101564e-13
	-4.887133144735546e-05,-1.661744969705112e-11
	8.291224228886419e-07,1.556366800546714e-13
	-1.730714247234477e-04,-1.688858636291596e-11
	8.291224228886419e-07,1.556366800546714e-13
22		1.659586907437560e+00,0.000000000000000e+00
	8.291224228886418e-03,1.592619240417871e-09
	1.000000000000000e+00,0.000000000000000e+00
	0.000000000000000e+00,0.000000000000000e+00
	2.313205702350365e-04,2.345355151775329e-13
	2.313205701661664e-04,2.191758039643504e-13
	-8.291224228886346e-07,-1.592619240417878e-13
	1.730714247234855e-04,1.728197207470020e-11
	-1.233709708532414e-04,-1.181903260880596e-13
	-4.887133144735546e-05,-1.700451982457036e-11
	8.291224228886419e-07,1.592619240417871e-13
	-1.730714247234477e-04,-1.728197207470021e-11
	8.291224228886419e-07,1.592619240417871e-13
23		1.698243652461743e+00,0.000000000000000e+00
	8.291224228886418e-03,1.629716108091105e-09
	1.000000000000000e+00,0.000000000000000e+00
	0.000000000000000e+00,0.000000000000000e+00
	2.313205702350365e-04,2.399985491221259e-13
	2.313205701661664e-04,2.242810642742200e-13
	-8.291224228886414e-07,-1.629716108091105e-13
	1.730714247234855e-04,1.768452091683240e-11
	-1.233709708532414e-04,-1.209433324412886e-13
	-4.887133144735546e-05,-1.740060597358201e-11
	8.291224228886419e-07,1.629716108091105e-13
	-1.730714247234477e-04,-1.768452091683241e-11
	8.291224228886419e-07,1.629716108091105e-13
24		1.737800828749374e+00,0.000000000000000e+00
	8.291224228886418e-03,1.667677072816692e-09
	1.000000000000000e+00,0.000000000000000e+00
	0.000000000000000e+00,0.000000000000000e+00
	2.313205702350365e-04,2.455888334742198e-13
	2.313205701661664e-04,2.295052413730787e-13
	-8.291224228886414e-07,-1.667677072816689e-13
	1.730714247234855e-04,1.809644632603702e-11
	-1.233709708532414e-04,-1.237604645502522e-13
	-4.887133144735546e-05,-1.780591815420510e-11
	8.291224228886419e-07,1.667677072816692e-13
	-1.730714247234477e-04,-1.809644632603702e-11
	8.291224228886419e-07,1.667677072816692e-13
25		1.778279410038922e+00,0.000000000000000e+00
	8.291224228886418e-03,1.706522262000601e-09
	1.000000000000000e+00,0.000000000000000e+00
	0.000000000000000e+00,0.000000000000000e+00
	2.313205702350365e-04,2.513093322765742e-13
	2.313205701661664e-04,2.348511051887745e-13
	-8.291224228886414e-07,-1.706522262000617e-13
	1.730714247234855e-04,1.851796671061848e-11
	-1.233709708532414e-04,-1.266432160956838e-13
	-4.887133144735546e-05,-1.822067126832273e-11
	8.291224228886419e-07,1.706522262000601e-13
	-1.730714247234477e-04,-1.851796671061848e-11
	8.291224228886419e-07,1.706522262000601e-13
26		1.819700858609982e+00,0.000000000000000e+00
	8.291224228886418e-03,1.746272271876316e-09
	1.000000000000000e+00,0.000000000000000e+00
	0.000000000000000e+00,0.000000000000000e+00
	2.313205702350365e-04,2.571630786133738e-13
	2.313205701661664e-04,2.403214901690631e-13
	-8.291224228886414e-07,-1.746272271876319e-13
	1.730714247234855e-04,1.894930556626418e-11
	-1.233709708532414e-04,-1.295931155506104e-13
	-4.887133144735546e-05,-1.864508522352594e-11
	8.291224228886419e-07,1.746272271876316e-13
	-1.730714247234477e-04,-1.894930556626418e-11
	8.291224228886419e-07,1.746272271876316e-13
27		1.862087136662866e+00,0.000000000000000e+00
	8.291224228886418e-03,1.786948178425226e-09
	1.000000000000000e+00,0.000000000000000e+00
	0.000000000000000e+00,0.000000000000000e+00
	2.313205702350365e-04,2.631531762184101e-13
	2.313205701661664e-04,2.459192967844704e-13
	-8.291224228886414e-07,-1.786948178425207e-13
	1.730714247234855e-04,1.939069159454481e-11
	-1.233709708532414e-04,-1.326117269907696e-13
	-4.887133144735546e-05,-1.907938504971152e-11
	8.291224228886419e-07,1.786948178425226e-13
	-1.730714247234477e-04,-1.939069159454481e-11
	8.291224228886419e-07,1.786948178425226e-13
28		1.905460717963246e+00,0.000000000000000e+00
	8.291224228886418e-03,1.828571548551393e-09
	1.000000000000000e+00,0.000000000000000e+00
	0.000000000000000e+00,0.000000000000000e+00
	2.313205702350365e-04,2.692828011207213e-13
	2.313205701661664e-04,2.516474930661595e-13
	-8.291224228886414e-07,-1.828571548551377e-13
	1.730714247234855e-04,1.984235882417503e-11
	-1.233709708532414e-04,-1.357006509239030e-13
	-4.887133144735546e-05,-1.952380101839599e-11
	8.291224228886419e-07,1.828571548551393e-13
	-1.730714247234477e-04,-1.984235882417503e-11
	8.291224228886419e-07,1.828571548551393e-13
29		1.949844599758044e+00,0.000000000000000e+00
	8.291224228886418e-03,1.871164451516607e-09
	1.000000000000000e+00,0.000000000000000e+00
	0.000000000000000e+00,0.000000000000000e+00
	2.313205702350365e-04,2.755552033285662e-13
	2.313205701661664e-04,2.575091161796208e-13
	-8.291224228886414e-07,-1.871164451516594e-13
	1.730714247234855e-04,2.030454673509850e-11
	-1.233709708532414e-04,-1.388615251383669e-13
	-4.887133144735547e-05,-1.997856876480847e-11
	8.291224228886419e-07,1.871164451516607e-13
	-1.730714247234477e-04,-2.030454673509850e-11
	8.291224228886419e-07,1.871164451516607e-13
30		1.995262314968878e+00,0.000000000000000e+00
	8.291224228886420e-03,1.914749470641805e-09
	1.000000000000000e+00,0.000000000000000e+00
	0.000000000000000e+00,0.000000000000000e+00
	2.313205702350365e-04,2.819737085526202e-13
	2.313205701661664e-04,2.635072740350165e-13
	-8.291224228886414e-07,-1.914749470641791e-13
	1.730714247234855e-04,2.077750038546335e-11
	-1.233709708532414e-04,-1.420960255715086e-13
	-4.887133144735548e-05,-2.044392941282767e-11
	8.291224228886420e-07,1.914749470641805e-13
	-1.730714247234477e-04,-2.077750038546335e-11
	8.291224228886420e-07,1.914749470641805e-13
31		2.041737944669527e+00,0.000000000000000e+00
	8.291224228886420e-03,1.959349715281042e-09
	1.000000000000000e+00,0.000000000000000e+00
	0.000000000000000e+00,0.000000000000000e+00
	2.313205702350365e-04,2.885417199693119e-13
	2.313205701661664e-04,2.696451469350366e-13
	-8.291224228886414e-07,-1.959349715281049e-13
	1.730714247234855e-04,2.126147054155531e-11
	-1.233709708532414e-04,-1.454058671982715e-13
	-4.887133144735548e-05,-2.092012970282894e-11
	8.291224228886420e-07,1.959349715281042e-13
	-1.730714247234477e-04,-2.126147054155531e-11
	8.291224228886420e-07,1.959349715281042e-13
32		2.089296130854037e+00,0.000000000000000e+00
	8.291224228886420e-03,2.004988833074381e-09
	1.000000000000000e+00,0.000000000000000e+00
	0.000000000000000e+00,0.000000000000000e+00
	2.313205702350365e-04,2.952627200252327e-13
	2.313205701661664e-04,2.759259892611373e-13
	-8.291224228886414e-07,-2.004988833074375e-13
	1.730714247234855e-04,2.175671381075725e-11
	-1.233709708532414e-04,-1.487928049404973e-13
	-4.887133144735548e-05,-2.140742212250931e-11
	8.291224228886420e-07,2.004988833074382e-13
	-1.730714247234477e-04,-2.175671381075725e-11
	8.291224228886420e-07,2.004988833074382e-13
33		2.137962089502230e+00,0.000000000000000e+00
	8.291224228886420e-03,2.051691022486181e-09
	1.000000000000000e+00,0.000000000000000e+00
	0.000000000000000e+00,0.000000000000000e+00
	2.313205702350365e-04,3.021402722835749e-13
	2.313205701661664e-04,2.823531311990564e-13
	-8.291224228886414e-07,-2.051691022486161e-13
	1.730714247234855e-04,2.226349277760579e-11
	-1.233709708532414e-04,-1.522586345974080e-13
	-4.887133144735548e-05,-2.190606504075977e-11
	8.291224228886420e-07,2.051691022486181e-13
	-1.730714247234477e-04,-2.226349277760579e-11
	8.291224228886420e-07,2.051691022486181e-13
34		2.187761623949550e+00,0.000000000000000e+00
	8.291224228886420e-03,2.099481045635444e-09
	1.000000000000000e+00,0.000000000000000e+00
	0.000000000000000e+00,0.000000000000000e+00
	2.313205702350365e-04,3.091780233135812e-13
	2.313205701661664e-04,2.889299805045228e-13
	-8.291224228886414e-07,-2.099481045635434e-13
	1.730714247234855e-04,2.278207614301718e-11
	-1.233709708532414e-04,-1.558051937977636e-13
	-4.887133144735548e-05,-2.241632284465588e-11
	8.291224228886420e-07,2.099481045635444e-13
	-1.730714247234477e-04,-2.278207614301719e-11
	8.291224228886420e-07,2.099481045635444e-13
35		2.238721138568337e+00,0.000000000000000e+00
	8.291224228886420e-03,2.148384241425020e-09
	1.000000000000000e+00,0.000000000000000e+00
	0.000000000000000e+00,0.000000000000000e+00
	2.313205702350365e-04,3.163797046240031e-13
	2.313205701661664e-04,2.956600243100930e-13
	-8.291224228886414e-07,-2.148384241425019e-13
	1.730714247234855e-04,2.331273886675604e-11
	-1.233709708532414e-04,-1.594343629741963e-13
	-4.887133144735548e-05,-2.293846607963934e-11
	8.291224228886420e-07,2.148384241425020e-13
	-1.730714247234477e-04,-2.331273886675604e-11
	8.291224228886420e-07,2.148384241425020e-13
36		2.290867652767770e+00,0.000000000000000e+00
	8.291224228886420e-03,2.198426538976627e-09
	1.000000000000000e+00,0.000000000000000e+00
	0.000000000000000e+00,0.000000000000000e+00
	2.313205702350365e-04,3.237491346415973e-13
	2.313205701661664e-04,3.025468309740756e-13
	-8.291224228886482e-07,-2.198426538976604e-13
	1.730714247234855e-04,2.385576231322262e-11
	-1.233709708532414e-04,-1.631480663602412e-13
	-4.887133144735548e-05,-2.347277159296472e-11
	8.291224228886420e-07,2.198426538976627e-13
	-1.730714247234477e-04,-2.385576231322262e-11
	8.291224228886420e-07,2.198426538976627e-13
37		2.344228815319919e+00,0.000000000000000e+00
	8.291224228886422e-03,2.249634471378814e-09
	1.000000000000000e+00,0.000000000000000e+00
	0.000000000000000e+00,0.000000000000000e+00
	2.313205702350365e-04,3.312902207357050e-13
	2.313205701661663e-04,3.095940519725214e-13
	-8.291224228886414e-07,-2.249634471378802e-13
	1.730714247234855e-04,2.441143440063602e-11
	-1.233709708532413e-04,-1.669482730105903e-13
	-4.887133144735548e-05,-2.401952268048755e-11
	8.291224228886422e-07,2.249634471378814e-13
	-1.730714247234477e-04,-2.441143440063602e-11
	8.291224228886422e-07,2.249634471378814e-13
38		2.398832919019488e+00,0.000000000000000e+00
	8.291224228886422e-03,2.302035189755159e-09
	1.000000000000000e+00,0.000000000000000e+00
	0.000000000000000e+00,0.000000000000000e+00
	2.313205702350365e-04,3.390069612899911e-13
	2.313205701661663e-04,3.168054238352847e-13
	-8.291224228886414e-07,-2.302035189755135e-13
	1.730714247234855e-04,2.498004975369217e-11
	-1.233709708532413e-04,-1.708369978451112e-13
	-4.887133144735548e-05,-2.457900923687155e-11
	8.291224228886422e-07,2.302035189755160e-13
	-1.730714247234477e-04,-2.498004975369217e-11
	8.291224228886422e-07,2.302035189755160e-13
39		2.454708915685027e+00,0.000000000000000e+00
	8.291224228886422e-03,2.355656477660151e-09
	1.000000000000000e+00,0.000000000000000e+00
	0.000000000000000e+00,0.000000000000000e+00
	2.313205702350365e-04,3.469034478224407e-13
	2.313205701661663e-04,3.241847701271811e-13
	-8.291224228886414e-07,-2.355656477660129e-13
	1.730714247234855e-04,2.556190985977777e-11
	-1.233709708532413e-04,-1.748163027171846e-13
	-4.887133144735548e-05,-2.515152790929457e-11
	8.291224228886422e-07,2.355656477660151e-13
	-1.730714247234477e-04,-2.556190985977777e-11
	8.291224228886422e-07,2.355656477660151e-13
40		2.511886431509577e+00,0.000000000000000e+00
	8.291224228886422e-03,2.410526765810397e-09
	1.000000000000000e+00,0.000000000000000e+00
	0.000000000000000e+00,0.000000000000000e+00
	2.313205702350365e-04,3.549838671547358e-13
	2.313205701661663e-04,3.317360034752916e-13
	-8.291224228886482e-07,-2.410526765810410e-13
	1.730714247234855e-04,2.615732322882291e-11
	-1.233709708532413e-04,-1.788882975069260e-13
	-4.887133144735550e-05,-2.573738225473494e-11
	8.291224228886422e-07,2.410526765810397e-13
	-1.730714247234477e-04,-2.615732322882291e-11
	8.291224228886422e-07,2.410526765810397e-13
41		2.570395782768860e+00,0.000000000000000e+00
	8.291224228886422e-03,2.466675147158969e-09
	1.000000000000000e+00,0.000000000000000e+00
	0.000000000000000e+00,0.000000000000000e+00
	2.313205702350365e-04,3.632525036321632e-13
	2.313205701661663e-04,3.394631276434896e-13
	-8.291224228886482e-07,-2.466675147158981e-13
	1.730714247234855e-04,2.676660555687707e-11
	-1.233709708532413e-04,-1.830551412398720e-13
	-4.887133144735550e-05,-2.633688290092130e-11
	8.291224228886422e-07,2.466675147158969e-13
	-1.730714247234477e-04,-2.676660555687707e-11
	8.291224228886422e-07,2.466675147158969e-13
42		2.630267991895378e+00,0.000000000000000e+00
	8.291224228886424e-03,2.524131392320871e-09
	1.000000000000000e+00,0.000000000000000e+00
	0.000000000000000e+00,0.000000000000000e+00
	2.313205702350365e-04,3.717137413952318e-13
	2.313205701661663e-04,3.473702396552901e-13
	-8.291224228886346e-07,-2.524131392320870e-13
	1.730714247234855e-04,2.739007989349539e-11
	-1.233709708532413e-04,-1.873190432317247e-13
	-4.887133144735551e-05,-2.695034771103158e-11
	8.291224228886424e-07,2.524131392320871e-13
	-1.730714247234477e-04,-2.739007989349540e-11
	8.291224228886424e-07,2.524131392320871e-13
43		2.691534803926912e+00,0.000000000000000e+00
	8.291224228886424e-03,2.582925965357811e-09
	1.000000000000000e+00,0.000000000000000e+00
	0.000000000000000e+00,0.000000000000000e+00
	2.313205702350365e-04,3.803720667042013e-13
	2.313205701661663e-04,3.554615319661446e-13
	-8.291224228886346e-07,-2.582925965357781e-13
	1.730714247234855e-04,2.802807681302382e-11
	-1.233709708532413e-04,-1.916822642597595e-13
	-4.887133144735551e-05,-2.757810195222829e-11
	8.291224228886424e-07,2.582925965357811e-13
	-1.730714247234477e-04,-2.802807681302383e-11
	8.291224228886424e-07,2.582925965357811e-13
44		2.754228703338163e+00,0.000000000000000e+00
	8.291224228886424e-03,2.643090039930649e-09
	1.000000000000000e+00,0.000000000000000e+00
	0.000000000000000e+00,0.000000000000000e+00
	2.313205702350365e-04,3.892320703177567e-13
	2.313205701661663e-04,3.637412946863370e-13
	-8.291224228886414e-07,-2.643090039930629e-13
	1.730714247234855e-04,2.868093458987397e-11
	-1.233709708532413e-04,-1.961471177615196e-13
	-4.887133144735551e-05,-2.822047846811939e-11
	8.291224228886424e-07,2.643090039930649e-13
	-1.730714247234477e-04,-2.868093458987397e-11
	8.291224228886424e-07,2.643090039930649e-13
45		2.818382931264450e+00,0.000000000000000e+00
	8.291224228886424e-03,2.704655515828092e-09
	1.000000000000000e+00,0.000000000000000e+00
	0.000000000000000e+00,0.000000000000000e+00
	2.313205702350365e-04,3.982984499270902e-13
	2.313205701661663e-04,3.722139178556574e-13
	-8.291224228886414e-07,-2.704655515828069e-13
	1.730714247234855e-04,2.934899937788072e-11
	-1.233709708532413e-04,-2.007159710614308e-13
	-4.887133144735551e-05,-2.887781785523649e-11
	8.291224228886424e-07,2.704655515828092e-13
	-1.730714247234477e-04,-2.934899937788072e-11
	8.291224228886424e-07,2.704655515828092e-13
46		2.884031503126602e+00,0.000000000000000e+00
	8.291224228886424e-03,2.767655035880374e-09
	1.000000000000000e+00,0.000000000000000e+00
	0.000000000000000e+00,0.000000000000000e+00
	2.313205702350365e-04,4.075760126466781e-13
	2.313205701661663e-04,3.808838937710583e-13
	-8.291224228886414e-07,-2.767655035880333e-13
	1.730714247234855e-04,3.003262539383755e-11
	-1.233709708532413e-04,-2.053912466259888e-13
	-4.887133144735551e-05,-2.955046864362352e-11
	8.291224228886424e-07,2.767655035880374e-13
	-1.730714247234477e-04,-3.003262539383755e-11
	8.291224228886424e-07,2.767655035880374e-13
47		2.951209226666381e+00,0.000000000000000e+00
	8.291224228886427e-03,2.832122003266926e-09
	1.000000000000000e+00,0.000000000000000e+00
	0.000000000000000e+00,0.000000000000000e+00
	2.313205702350365e-04,4.170696775630779e-13
	2.313205701661663e-04,3.897558193685313e-13
	-8.291224228886414e-07,-2.832122003266887e-13
	1.730714247234855e-04,3.073217510530698e-11
	-1.233709708532413e-04,-2.101754233481824e-13
	-4.887133144735553e-05,-3.023878748163211e-11
	8.291224228886428e-07,2.832122003266926e-13
	-1.730714247234477e-04,-3.073217510530700e-11
	8.291224228886428e-07,2.832122003266926e-13
48		3.019951720402012e+00,0.000000000000000e+00
	8.291224228886427e-03,2.898090599227177e-09
	1.000000000000000e+00,0.000000000000000e+00
	0.000000000000000e+00,0.000000000000000e+00
	2.313205702350365e-04,4.267844783430913e-13
	2.313205701661663e-04,3.988343986604616e-13
	-8.291224228886414e-07,-2.898090599227175e-13
	1.730714247234855e-04,3.144801942280569e-11
	-1.233709708532413e-04,-2.150710378618359e-13
	-4.887133144735553e-05,-3.094313932502114e-11
	8.291224228886428e-07,2.898090599227177e-13
	-1.730714247234477e-04,-3.144801942280569e-11
	8.291224228886428e-07,2.898090599227177e-13
49		3.090295432513586e+00,0.000000000000000e+00
	8.291224228886427e-03,2.965595801183901e-09
	1.000000000000000e+00,0.000000000000000e+00
	0.000000000000000e+00,0.000000000000000e+00