Title: * GA CMOS Amp | W=1.9643299798021828e-05 L=6.105683318079358e-07 Vbias=0.551773226553575
Date: Mon Sep  8 21:06:16 2025
Plotname: Operating Point
Flags: real nocompression
No. Variables: 1
No. Points:            1
Offset:    0.0000000000000000e+00
Command: Linear Technology Corporation LTspice
Variables:
	0	V(out)	voltage
Values:
0		1.797959651006168e+00
