Title: * GA CMOS Amp | W=1e-06 L=7.22518600036912e-07 Vbias=0.6341896264145996
Date: Mon Sep  8 20:18:47 2025
Plotname: Operating Point
Flags: real nocompression
No. Variables: 2
No. Points:            1
Offset:    0.0000000000000000e+00
Command: Linear Technology Corporation LTspice
Variables:
	0	V(out)	voltage
	1	V(g)	voltage
Values:
0		1.799989790226074e+00
	6.341896264145996e-01
