Title: * GA CMOS Amp | W=2.3221765381406217e-05 L=1e-06 Vbias=0.9226201835938725
Date: Mon Sep  8 18:44:52 2025
Plotname: AC Analysis
Flags: complex forward log
No. Variables: 11
No. Points:          901
Offset:    0.0000000000000000e+00
Command: Linear Technology Corporation LTspice
Variables:
	0	frequency	frequency
	1	V(out)	voltage
	2	V(g)	voltage
	3	V(vdd)	voltage
	4	Id(M1)	device_current
	5	Ig(M1)	device_current
	6	Ib(M1)	device_current
	7	Is(M1)	device_current
	8	I(Rload)	device_current
	9	I(Vg)	device_current
	10	I(Vdd)	device_current
Values:
0		1.000000000000000e+00,0.000000000000000e+00
	-4.351384316565783e+00,1.492404299819330e-09
	1.000000000000000e+00,0.000000000000000e+00
	0.000000000000000e+00,0.000000000000000e+00
	4.351384316565783e-04,-1.492404299819330e-13
	4.355034387414021e-23,3.254790202048031e-13
	4.351384324478152e-12,-5.780730589254720e-15
	-4.351384360079626e-04,-1.704578596336154e-13
	-4.351384316565783e-04,1.492404299819330e-13
	-4.355034387414021e-23,-3.254790202048031e-13
	-4.351384316565783e-04,1.492404299819330e-13
1		1.023292992280754e+00,0.000000000000000e+00
	-4.351384316565783e+00,1.527166861654785e-09
	1.000000000000000e+00,0.000000000000000e+00
	0.000000000000000e+00,0.000000000000000e+00
	4.351384316565783e-04,-1.527166861654785e-13
	4.560280834804581e-23,3.330604005099809e-13
	4.351384324478152e-12,-5.915381102247310e-15
	-4.351384360079626e-04,-1.744283332422551e-13
	-4.351384316565783e-04,1.527166861654785e-13
	-4.560280834804581e-23,-3.330604005099809e-13
	-4.351384316565783e-04,1.527166861654785e-13
2		1.047128548050899e+00,0.000000000000000e+00
	-4.351384316565783e+00,1.562739147574734e-09
	1.000000000000000e+00,0.000000000000000e+00
	0.000000000000000e+00,0.000000000000000e+00
	4.351384316565783e-04,-1.562739147574734e-13
	4.775200249253265e-23,3.408183738480848e-13
	4.351384324478152e-12,-6.053168028599724e-15
	-4.351384360079626e-04,-1.784912910620117e-13
	-4.351384316565783e-04,1.562739147574734e-13
	-4.775200249253265e-23,-3.408183738480848e-13
	-4.351384316565783e-04,1.562739147574734e-13
3		1.071519305237606e+00,0.000000000000000e+00
	-4.351384316565783e+00,1.599140018476024e-09
	1.000000000000000e+00,0.000000000000000e+00
	0.000000000000000e+00,0.000000000000000e+00
	4.351384316565783e-04,-1.599140018476024e-13
	5.000248503652863e-23,3.487570535992674e-13
	4.351384324478152e-12,-6.194164424763989e-15
	-4.351384360079626e-04,-1.826488873269009e-13
	-4.351384316565783e-04,1.599140018476024e-13
	-5.000248503652863e-23,-3.487570535992674e-13
	-4.351384316565783e-04,1.599140018476024e-13
4		1.096478196143185e+00,0.000000000000000e+00
	-4.351384316565783e+00,1.636388774582231e-09
	1.000000000000000e+00,0.000000000000000e+00
	0.000000000000000e+00,0.000000000000000e+00
	4.351384316565783e-04,-1.636388774582231e-13
	5.235902955523704e-23,3.568806489566136e-13
	4.351384324478152e-12,-6.338445048895742e-15
	-4.351384360079626e-04,-1.869033264494948e-13
	-4.351384316565783e-04,1.636388774582231e-13
	-5.235902955523704e-23,-3.568806489566136e-13
	-4.351384316565783e-04,1.636388774582231e-13
5		1.122018454301963e+00,0.000000000000000e+00
	-4.351384316565783e+00,1.674505165676888e-09
	1.000000000000000e+00,0.000000000000000e+00
	0.000000000000000e+00,0.000000000000000e+00
	4.351384316565783e-04,-1.674505165676888e-13
	5.482663459552952e-23,3.651934671579105e-13
	4.351384324478152e-12,-6.486086400491596e-15
	-4.351384360079626e-04,-1.912568641897302e-13
	-4.351384316565783e-04,1.674505165676888e-13
	-5.482663459552952e-23,-3.651934671579105e-13
	-4.351384316565783e-04,1.674505165676888e-13
6		1.148153621496882e+00,0.000000000000000e+00
	-4.351384316565783e+00,1.713509401575082e-09
	1.000000000000000e+00,0.000000000000000e+00
	0.000000000000000e+00,0.000000000000000e+00
	4.351384316565783e-04,-1.713509401575082e-13
	5.741053427853404e-23,3.736999157694015e-13
	4.351384324478152e-12,-6.637166760950555e-15
	-4.351384360079626e-04,-1.957118088509428e-13
	-4.351384316565783e-04,1.713509401575082e-13
	-5.741053427853404e-23,-3.736999157694015e-13
	-4.351384316565783e-04,1.713509401575082e-13
7		1.174897554939529e+00,0.000000000000000e+00
	-4.351384316565783e+00,1.753422162838970e-09
	1.000000000000000e+00,0.000000000000000e+00
	0.000000000000000e+00,0.000000000000000e+00
	4.351384316565783e-04,-1.753422162838970e-13
	6.011620940190772e-23,3.824045050227367e-13
	4.351384324478152e-12,-6.791766235079502e-15
	-4.351384360079626e-04,-2.002705225037602e-13
	-4.351384316565783e-04,1.753422162838970e-13
	-6.011620940190772e-23,-3.824045050227367e-13
	-4.351384316565783e-04,1.753422162838970e-13
8		1.202264434617413e+00,0.000000000000000e+00
	-4.351384316565783e+00,1.794264611742882e-09
	1.000000000000000e+00,0.000000000000000e+00
	0.000000000000000e+00,0.000000000000000e+00
	4.351384316565783e-04,-1.794264611742882e-13
	6.294939906534350e-23,3.913118502063570e-13
	4.351384324478152e-12,-6.949966793565928e-15
	-4.351384360079626e-04,-2.049354222385029e-13
	-4.351384316565783e-04,1.794264611742882e-13
	-6.294939906534350e-23,-3.913118502063570e-13
	-4.351384316565783e-04,1.794264611742882e-13
9		1.230268770812381e+00,0.000000000000000e+00
	-4.351384316565783e+00,1.836058403493839e-09
	1.000000000000000e+00,0.000000000000000e+00
	0.000000000000000e+00,0.000000000000000e+00
	4.351384316565783e-04,-1.836058403493839e-13
	6.591611284396978e-23,4.004266741125813e-13
	4.351384324478152e-12,-7.111852316439955e-15
	-4.351384360079626e-04,-2.097089814467574e-13
	-4.351384316565783e-04,1.836058403493839e-13
	-6.591611284396978e-23,-4.004266741125813e-13
	-4.351384316565783e-04,1.836058403493839e-13
10		1.258925411794167e+00,0.000000000000000e+00
	-4.351384316565783e+00,1.878825697713435e-09
	1.000000000000000e+00,0.000000000000000e+00
	0.000000000000000e+00,0.000000000000000e+00
	4.351384316565783e-04,-1.878825697713435e-13
	6.902264353546532e-23,4.097538095416937e-13
	4.351384324478152e-12,-7.277508637548664e-15
	-4.351384360079626e-04,-2.145937311328015e-13
	-4.351384316565783e-04,1.878825697713435e-13
	-6.902264353546532e-23,-4.097538095416937e-13
	-4.351384316565783e-04,1.878825697713435e-13
11		1.288249551693134e+00,0.000000000000000e+00
	-4.351384316565783e+00,1.922589170187157e-09
	1.000000000000000e+00,0.000000000000000e+00
	0.000000000000000e+00,0.000000000000000e+00
	4.351384316565783e-04,-1.922589170187156e-13
	7.227558050792664e-23,4.192982018643580e-13
	4.351384324478152e-12,-7.447023590066186e-15
	-4.351384360079626e-04,-2.195922612555762e-13
	-4.351384316565783e-04,1.922589170187157e-13
	-7.227558050792664e-23,-4.192982018643580e-13
	-4.351384316565783e-04,1.922589170187157e-13
12		1.318256738556407e+00,0.000000000000000e+00
	-4.351384316565783e+00,1.967372024887387e-09
	1.000000000000000e+00,0.000000000000000e+00
	0.000000000000000e+00,0.000000000000000e+00
	4.351384316565783e-04,-1.967372024887387e-13
	7.568182367680110e-23,4.290649116437185e-13
	4.351384324478152e-12,-7.620487053064203e-15
	-4.351384360079626e-04,-2.247072221019156e-13
	-4.351384316565783e-04,1.967372024887387e-13
	-7.568182367680110e-23,-4.290649116437185e-13
	-4.351384316565783e-04,1.967372024887387e-13
13		1.348962882591653e+00,0.000000000000000e+00
	-4.351384316565783e+00,2.013198006276461e-09
	1.000000000000000e+00,0.000000000000000e+00
	0.000000000000000e+00,0.000000000000000e+00
	4.351384316565783e-04,-2.013198006276461e-13
	7.924859814053292e-23,4.390591173185781e-13
	4.351384324478152e-12,-7.797990999166828e-15
	-4.351384360079626e-04,-2.299413256917652e-13
	-4.351384316565783e-04,2.013198006276461e-13
	-7.924859814053292e-23,-4.390591173185781e-13
	-4.351384316565783e-04,2.013198006276461e-13
14		1.380384264602885e+00,0.000000000000000e+00
	-4.351384316565783e+00,2.060091411896288e-09
	1.000000000000000e+00,0.000000000000000e+00
	0.000000000000000e+00,0.000000000000000e+00
	4.351384316565783e-04,-2.060091411896288e-13
	8.298346950596549e-23,4.492861179490745e-13
	4.351384324478152e-12,-7.979629543315761e-15
	-4.351384360079626e-04,-2.352973472161299e-13
	-4.351384316565783e-04,2.060091411896289e-13
	-8.298346950596549e-23,-4.492861179490745e-13
	-4.351384316565783e-04,2.060091411896289e-13
15		1.412537544622754e+00,0.000000000000000e+00
	-4.351384316565783e+00,2.108077105251236e-09
	1.000000000000000e+00,0.000000000000000e+00
	0.000000000000000e+00,0.000000000000000e+00
	4.351384316565783e-04,-2.108077105251236e-13
	8.689435993600771e-23,4.597513360263122e-13
	4.351384324478152e-12,-8.165498992671433e-15
	-4.351384360079626e-04,-2.407781265085172e-13
	-4.351384316565783e-04,2.108077105251236e-13
	-8.689435993600771e-23,-4.597513360263122e-13
	-4.351384316565783e-04,2.108077105251236e-13
16		1.445439770745927e+00,0.000000000000000e+00
	-4.351384316565783e+00,2.157180528991087e-09
	1.000000000000000e+00,0.000000000000000e+00
	0.000000000000000e+00,0.000000000000000e+00
	4.351384316565783e-04,-2.157180528991087e-13
	9.098956495360395e-23,4.704603203474394e-13
	4.351384324478152e-12,-8.355697897676290e-15
	-4.351384360079626e-04,-2.463865695506544e-13
	-4.351384316565783e-04,2.157180528991087e-13
	-9.098956495360395e-23,-4.704603203474394e-13
	-4.351384316565783e-04,2.157180528991087e-13
17		1.479108388168207e+00,0.000000000000000e+00
	-4.351384316565783e+00,2.207427718401070e-09
	1.000000000000000e+00,0.000000000000000e+00
	0.000000000000000e+00,0.000000000000000e+00
	4.351384316565783e-04,-2.207427718401070e-13
	9.527777103765036e-23,4.814187489576934e-13
	4.351384324478152e-12,-8.550327104307174e-15
	-4.351384360079626e-04,-2.521256500132793e-13
	-4.351384316565783e-04,2.207427718401070e-13
	-9.527777103765036e-23,-4.814187489576934e-13
	-4.351384316565783e-04,2.207427718401070e-13
18		1.513561248436208e+00,0.000000000000000e+00
	-4.351384316565783e+00,2.258845315206108e-09
	1.000000000000000e+00,0.000000000000000e+00
	0.000000000000000e+00,0.000000000000000e+00
	4.351384316565783e-04,-2.258845315206109e-13
	9.976807404818084e-23,4.926324321609753e-13
	4.351384324478152e-12,-8.749489807545724e-15
	-4.351384360079626e-04,-2.579984108328187e-13
	-4.351384316565783e-04,2.258845315206109e-13
	-9.976807404818084e-23,-4.926324321609753e-13
	-4.351384316565783e-04,2.258845315206109e-13
19		1.548816618912481e+00,0.000000000000000e+00
	-4.351384316565783e+00,2.311460581696622e-09
	1.000000000000000e+00,0.000000000000000e+00
	0.000000000000000e+00,0.000000000000000e+00
	4.351384316565783e-04,-2.311460581696622e-13
	1.044699985199062e-22,5.041073156005500e-13
	4.351384324478152e-12,-8.953291606093417e-15
	-4.351384360079626e-04,-2.640079658247944e-13
	-4.351384316565783e-04,2.311460581696622e-13
	-1.044699985199062e-22,-5.041073156005500e-13
	-4.351384316565783e-04,2.311460581696622e-13
20		1.584893192461113e+00,0.000000000000000e+00
	-4.351384316565783e+00,2.365301415183349e-09
	1.000000000000000e+00,0.000000000000000e+00
	0.000000000000000e+00,0.000000000000000e+00
	4.351384316565783e-04,-2.365301415183349e-13
	1.093935178650290e-22,5.158494834115053e-13
	4.351384324478152e-12,-9.161840558361459e-15
	-4.351384360079626e-04,-2.701575013348089e-13
	-4.351384316565783e-04,2.365301415183349e-13
	-1.093935178650290e-22,-5.158494834115053e-13
	-4.351384316565783e-04,2.365301415183349e-13
21		1.621810097358929e+00,0.000000000000000e+00
	-4.351384316565783e+00,2.420396362788871e-09
	1.000000000000000e+00,0.000000000000000e+00
	0.000000000000000e+00,0.000000000000000e+00
	4.351384316565783e-04,-2.420396362788871e-13
	1.145490755281879e-22,5.278651614466405e-13
	4.351384324478152e-12,-9.375247239764930e-15
	-4.351384360079626e-04,-2.764502779279884e-13
	-4.351384316565783e-04,2.420396362788871e-13
	-1.145490755281879e-22,-5.278651614466405e-13
	-4.351384316565783e-04,2.420396362788871e-13
22		1.659586907437560e+00,0.000000000000000e+00
	-4.351384316565783e+00,2.476774636583678e-09
	1.000000000000000e+00,0.000000000000000e+00
	0.000000000000000e+00,0.000000000000000e+00
	4.351384316565783e-04,-2.476774636583678e-13
	1.199476071384043e-22,5.401607205774961e-13
	4.351384324478152e-12,-9.593624801350874e-15
	-4.351384360079626e-04,-2.828896321177774e-13
	-4.351384316565783e-04,2.476774636583678e-13
	-1.199476071384043e-22,-5.401607205774961e-13
	-4.351384316565783e-04,2.476774636583678e-13
23		1.698243652461743e+00,0.000000000000000e+00
	-4.351384316565783e+00,2.534466129074789e-09
	1.000000000000000e+00,0.000000000000000e+00
	0.000000000000000e+00,0.000000000000000e+00
	4.351384316565783e-04,-2.534466129074790e-13
	1.256005637050170e-22,5.527426800722744e-13
	4.351384324478152e-12,-9.817089029793285e-15
	-4.351384360079626e-04,-2.894789781350022e-13
	-4.351384316565783e-04,2.534466129074789e-13
	-1.256005637050170e-22,-5.527426800722744e-13
	-4.351384316565783e-04,2.534466129074789e-13
24		1.737800828749374e+00,0.000000000000000e+00
	-4.351384316565783e+00,2.593501429055161e-09
	1.000000000000000e+00,0.000000000000000e+00
	0.000000000000000e+00,0.000000000000000e+00
	4.351384316565783e-04,-2.593501429055160e-13
	1.315199359068089e-22,5.656177110524411e-13
	4.351384324478152e-12,-1.004575840878369e-14
	-4.351384360079626e-04,-2.962218097381413e-13
	-4.351384316565783e-04,2.593501429055161e-13
	-1.315199359068089e-22,-5.656177110524411e-13
	-4.351384316565783e-04,2.593501429055161e-13
25		1.778279410038922e+00,0.000000000000000e+00
	-4.351384316565783e+00,2.653911837822267e-09
	1.000000000000000e+00,0.000000000000000e+00
	0.000000000000000e+00,0.000000000000000e+00
	4.351384316565783e-04,-2.653911837822268e-13
	1.377182795258442e-22,5.787926400298435e-13
	4.351384324478152e-12,-1.027975418185378e-14
	-4.351384360079626e-04,-3.031217020657629e-13
	-4.351384316565783e-04,2.653911837822267e-13
	-1.377182795258442e-22,-5.787926400298435e-13
	-4.351384316565783e-04,2.653911837822267e-13
26		1.819700858609982e+00,0.000000000000000e+00
	-4.351384316565783e+00,2.715729385774463e-09
	1.000000000000000e+00,0.000000000000000e+00
	0.000000000000000e+00,0.000000000000000e+00
	4.351384316565783e-04,-2.715729385774463e-13
	1.442087420799652e-22,5.922744525262159e-13
	4.351384324478152e-12,-1.051920041665980e-14
	-4.351384360079626e-04,-3.101823135321098e-13
	-4.351384316565783e-04,2.715729385774463e-13
	-1.442087420799652e-22,-5.922744525262159e-13
	-4.351384316565783e-04,2.715729385774463e-13
27		1.862087136662866e+00,0.000000000000000e+00
	-4.351384316565783e+00,2.778986849393925e-09
	1.000000000000000e+00,0.000000000000000e+00
	0.000000000000000e+00,0.000000000000000e+00
	4.351384316565783e-04,-2.778986849393924e-13
	1.510050907104406e-22,6.060702967769968e-13
	4.351384324478152e-12,-1.076422407076473e-14
	-4.351384360079626e-04,-3.174073877668396e-13
	-4.351384316565783e-04,2.778986849393925e-13
	-1.510050907104406e-22,-6.060702967769968e-13
	-4.351384316565783e-04,2.778986849393925e-13
28		1.905460717963246e+00,0.000000000000000e+00
	-4.351384316565783e+00,2.843717768625175e-09
	1.000000000000000e+00,0.000000000000000e+00
	0.000000000000000e+00,0.000000000000000e+00
	4.351384316565783e-04,-2.843717768625175e-13
	1.581217413839180e-22,6.201874875214178e-13
	4.351384324478152e-12,-1.101495505895337e-14
	-4.351384360079626e-04,-3.248007555999469e-13
	-4.351384316565783e-04,2.843717768625175e-13
	-1.581217413839180e-22,-6.201874875214178e-13
	-4.351384316565783e-04,2.843717768625175e-13
29		1.949844599758044e+00,0.000000000000000e+00
	-4.351384316565783e+00,2.909956464658404e-09
	1.000000000000000e+00,0.000000000000000e+00
	0.000000000000000e+00,0.000000000000000e+00
	4.351384316565783e-04,-2.909956464658405e-13
	1.655737894706219e-22,6.346335098808745e-13
	4.351384324478152e-12,-1.127152632211435e-14
	-4.351384360079626e-04,-3.323663370929196e-13
	-4.351384316565783e-04,2.909956464658404e-13
	-1.655737894706219e-22,-6.346335098808745e-13
	-4.351384316565783e-04,2.909956464658404e-13
30		1.995262314968878e+00,0.000000000000000e+00
	-4.351384316565783e+00,2.977738058127023e-09
	1.000000000000000e+00,0.000000000000000e+00
	0.000000000000000e+00,0.000000000000000e+00
	4.351384316565783e-04,-2.977738058127023e-13
	1.733770417636576e-22,6.494160233276375e-13
	4.351384324478152e-12,-1.153407389772774e-14
	-4.351384360079626e-04,-3.401081436172075e-13
	-4.351384316565783e-04,2.977738058127022e-13
	-1.733770417636576e-22,-6.494160233276375e-13
	-4.351384316565783e-04,2.977738058127022e-13
31		2.041737944669527e+00,0.000000000000000e+00
	-4.351384316565783e+00,3.047098487729083e-09
	1.000000000000000e+00,0.000000000000000e+00
	0.000000000000000e+00,0.000000000000000e+00
	4.351384316565783e-04,-3.047098487729083e-13
	1.815480500073389e-22,6.645428657460061e-13
	4.351384324478152e-12,-1.180273699199309e-14
	-4.351384360079626e-04,-3.480302799811047e-13
	-4.351384316565783e-04,3.047098487729083e-13
	-1.815480500073389e-22,-6.645428657460061e-13
	-4.351384316565783e-04,3.047098487729083e-13
32		2.089296130854037e+00,0.000000000000000e+00
	-4.351384316565783e+00,3.118074529282454e-09
	1.000000000000000e+00,0.000000000000000e+00
	0.000000000000000e+00,0.000000000000000e+00
	4.351384316565783e-04,-3.118074529282454e-13
	1.901041460056569e-22,6.800220575880581e-13
	4.351384324478152e-12,-1.207765805363940e-14
	-4.351384360079626e-04,-3.561369466061733e-13
	-4.351384316565783e-04,3.118074529282454e-13
	-1.901041460056569e-22,-6.800220575880581e-13
	-4.351384316565783e-04,3.118074529282454e-13
33		2.137962089502230e+00,0.000000000000000e+00
	-4.351384316565783e+00,3.190703815223847e-09
	1.000000000000000e+00,0.000000000000000e+00
	0.000000000000000e+00,0.000000000000000e+00
	4.351384316565783e-04,-3.190703815223846e-13
	1.990634783853597e-22,6.958618061261992e-13
	4.351384324478152e-12,-1.235898284945239e-14
	-4.351384360079626e-04,-3.644324417543622e-13
	-4.351384316565783e-04,3.190703815223846e-13
	-1.990634783853597e-22,-6.958618061261992e-13
	-4.351384316565783e-04,3.190703815223846e-13
34		2.187761623949550e+00,0.000000000000000e+00
	-4.351384316565783e+00,3.265024854562028e-09
	1.000000000000000e+00,0.000000000000000e+00
	0.000000000000000e+00,0.000000000000000e+00
	4.351384316565783e-04,-3.265024854562028e-13
	2.084450510916233e-22,7.120705098047684e-13
	4.351384324478152e-12,-1.264686054156267e-14
	-4.351384360079626e-04,-3.729211638070029e-13
	-4.351384316565783e-04,3.265024854562029e-13
	-2.084450510916233e-22,-7.120705098047684e-13
	-4.351384316565783e-04,3.265024854562029e-13
35		2.238721138568337e+00,0.000000000000000e+00
	-4.351384316565783e+00,3.341077053295811e-09
	1.000000000000000e+00,0.000000000000000e+00
	0.000000000000000e+00,0.000000000000000e+00
	4.351384316565783e-04,-3.341077053295811e-13
	2.182687636979670e-22,7.286567626930035e-13
	4.351384324478152e-12,-1.294144376653308e-14
	-4.351384360079626e-04,-3.816076135968893e-13
	-4.351384316565783e-04,3.341077053295811e-13
	-2.182687636979670e-22,-7.286567626930035e-13
	-4.351384316565783e-04,3.341077053295811e-13
36		2.290867652767770e+00,0.000000000000000e+00
	-4.351384316565783e+00,3.418900735307636e-09
	1.000000000000000e+00,0.000000000000000e+00
	0.000000000000000e+00,0.000000000000000e+00
	4.351384316565783e-04,-3.418900735307636e-13
	2.285554536159172e-22,7.456293590417309e-13
	4.351384324478152e-12,-1.324288871628877e-14
	-4.351384360079626e-04,-3.904963967946786e-13
	-4.351384316565783e-04,3.418900735307636e-13
	-2.285554536159172e-22,-7.456293590417309e-13
	-4.351384316565783e-04,3.418900735307636e-13
37		2.344228815319919e+00,0.000000000000000e+00
	-4.351384316565783e+00,3.498537163743821e-09
	1.000000000000000e+00,0.000000000000000e+00
	0.000000000000000e+00,0.000000000000000e+00
	4.351384316565783e-04,-3.498537163743821e-13
	2.393269402939500e-22,7.629972979461936e-13
	4.351384324478152e-12,-1.355135522093214e-14
	-4.351384360079626e-04,-3.995922263508793e-13
	-4.351384316565783e-04,3.498537163743821e-13
	-2.393269402939500e-22,-7.629972979461936e-13
	-4.351384316565783e-04,3.498537163743821e-13
38		2.398832919019488e+00,0.000000000000000e+00
	-4.351384316565783e+00,3.580028562892837e-09
	1.000000000000000e+00,0.000000000000000e+00
	0.000000000000000e+00,0.000000000000000e+00
	4.351384316565783e-04,-3.580028562892837e-13
	2.506060714994682e-22,7.807697881174905e-13
	4.351384324478152e-12,-1.386700683348707e-14
	-4.351384360079626e-04,-4.088999249947197e-13
	-4.351384316565783e-04,3.580028562892837e-13
	-2.506060714994682e-22,-7.807697881174905e-13
	-4.351384316565783e-04,3.580028562892837e-13
39		2.454708915685027e+00,0.000000000000000e+00
	-4.351384316565783e+00,3.663418140573179e-09
	1.000000000000000e+00,0.000000000000000e+00
	0.000000000000000e+00,0.000000000000000e+00
	4.351384316565783e-04,-3.663418140573179e-13
	2.624167717819780e-22,7.989562527651573e-13
	4.351384324478152e-12,-1.419001091661674e-14
	-4.351384360079626e-04,-4.184244277912226e-13
	-4.351384316565783e-04,3.663418140573179e-13
	-2.624167717819780e-22,-7.989562527651573e-13
	-4.351384316565783e-04,3.663418140573179e-13
40		2.511886431509577e+00,0.000000000000000e+00
	-4.351384316565783e+00,3.748750111042725e-09
	1.000000000000000e+00,0.000000000000000e+00
	0.000000000000000e+00,0.000000000000000e+00
	4.351384316565783e-04,-3.748750111042725e-13
	2.747840932202669e-22,8.175663345934763e-13
	4.351384324478152e-12,-1.452053873136126e-14
	-4.351384360079626e-04,-4.281707847578425e-13
	-4.351384316565783e-04,3.748750111042725e-13
	-2.747840932202669e-22,-8.175663345934763e-13
	-4.351384316565783e-04,3.748750111042725e-13
41		2.570395782768860e+00,0.000000000000000e+00
	-4.351384316565783e+00,3.836069718441718e-09
	1.000000000000000e+00,0.000000000000000e+00
	0.000000000000000e+00,0.000000000000000e+00
	4.351384316565783e-04,-3.836069718441719e-13
	2.877342685612210e-22,8.366099009141664e-13
	4.351384324478152e-12,-1.485876552794319e-14
	-4.351384360079626e-04,-4.381441635420513e-13
	-4.351384316565783e-04,3.836069718441719e-13
	-2.877342685612210e-22,-8.366099009141664e-13
	-4.351384316565783e-04,3.836069718441719e-13
42		2.630267991895378e+00,0.000000000000000e+00
	-4.351384316565783e+00,3.925423260781816e-09
	1.000000000000000e+00,0.000000000000000e+00
	0.000000000000000e+00,0.000000000000000e+00
	4.351384316565783e-04,-3.925423260781816e-13
	3.012947668629989e-22,8.560970488781626e-13
	4.351384324478152e-12,-1.520487063868720e-14
	-4.351384360079626e-04,-4.483498521612938e-13
	-4.351384316565783e-04,3.925423260781816e-13
	-3.012947668629989e-22,-8.560970488781626e-13
	-4.351384316565783e-04,3.925423260781816e-13
43		2.691534803926912e+00,0.000000000000000e+00
	-4.351384316565783e+00,4.016858114493900e-09
	1.000000000000000e+00,0.000000000000000e+00
	0.000000000000000e+00,0.000000000000000e+00
	4.351384316565783e-04,-4.016858114493900e-13
	3.154943517605864e-22,8.760381108292580e-13
	4.351384324478152e-12,-1.555903757310389e-14
	-4.351384360079626e-04,-4.587932618067642e-13
	-4.351384316565783e-04,4.016858114493900e-13
	-3.154943517605864e-22,-8.760381108292580e-13
	-4.351384316565783e-04,4.016858114493900e-13
44		2.754228703338163e+00,0.000000000000000e+00
	-4.351384316565783e+00,4.110422759547691e-09
	1.000000000000000e+00,0.000000000000000e+00
	0.000000000000000e+00,0.000000000000000e+00
	4.351384316565783e-04,-4.110422759547691e-13
	3.303631424773226e-22,8.964436597824502e-13
	4.351384324478152e-12,-1.592145411519010e-14
	-4.351384360079626e-04,-4.694799297124911e-13
	-4.351384316565783e-04,4.110422759547691e-13
	-3.303631424773226e-22,-8.964436597824502e-13
	-4.351384316565783e-04,4.110422759547691e-13
45		2.818382931264450e+00,0.000000000000000e+00
	-4.351384316565783e+00,4.206166805156470e-09
	1.000000000000000e+00,0.000000000000000e+00
	0.000000000000000e+00,0.000000000000000e+00
	4.351384316565783e-04,-4.206166805156471e-13
	3.459326777118111e-22,9.173245150298939e-13
	4.351384324478152e-12,-1.629231242299369e-14
	-4.351384360079626e-04,-4.804155220912531e-13
	-4.351384316565783e-04,4.206166805156470e-13
	-3.459326777118111e-22,-9.173245150298939e-13
	-4.351384316565783e-04,4.206166805156470e-13
46		2.884031503126602e+00,0.000000000000000e+00
	-4.351384316565783e+00,4.304141016080544e-09
	1.000000000000000e+00,0.000000000000000e+00
	0.000000000000000e+00,0.000000000000000e+00
	4.351384316565783e-04,-4.304141016080544e-13
	3.622359825357285e-22,9.386917478774316e-13
	4.351384324478152e-12,-1.667180913049821e-14
	-4.351384360079626e-04,-4.916058371388790e-13
	-4.351384316565783e-04,4.304141016080544e-13
	-3.622359825357285e-22,-9.386917478774316e-13
	-4.351384316565783e-04,4.304141016080544e-13
47		2.951209226666381e+00,0.000000000000000e+00
	-4.351384316565783e+00,4.404397339543386e-09
	1.000000000000000e+00,0.000000000000000e+00
	0.000000000000000e+00,0.000000000000000e+00
	4.351384316565783e-04,-4.404397339543387e-13
	3.793076384444284e-22,9.605566875147483e-13
	4.351384324478152e-12,-1.706014545188106e-14
	-4.351384360079626e-04,-5.030568081085286e-13
	-4.351384316565783e-04,4.404397339543386e-13
	-3.793076384444284e-22,-9.605566875147483e-13
	-4.351384316565783e-04,4.404397339543386e-13
48		3.019951720402012e+00,0.000000000000000e+00
	-4.351384316565783e+00,4.506988932774744e-09
	1.000000000000000e+00,0.000000000000000e+00
	0.000000000000000e+00,0.000000000000000e+00
	4.351384316565783e-04,-4.506988932774745e-13
	3.971838567089299e-22,9.829309270222561e-13
	4.351384324478152e-12,-1.745752728820023e-14
	-4.351384360079626e-04,-5.147745064565814e-13
	-4.351384316565783e-04,4.506988932774744e-13
	-3.971838567089299e-22,-9.829309270222561e-13
	-4.351384316565783e-04,4.506988932774744e-13
49		3.090295432513586e+00,0.000000000000000e+00
	-4.351384316565783e+00,4.611970191195310e-09
	1.000000000000000e+00,0.000000000000000e+00
	0.000000000000000e+00,0.000000000000000e+00
	4.351384316565783e-04,-4.611970191195310e-13
	4.159025551848783e-22,1.005826329517900e-12
	4.351384324478152e-12,-1.786416533656546e-14
	-4.351384360079626e-04,-5.267651450618035e-13
	-4.351384316565783e-04,4.611970191195310e-13
	-4.159025551848783e-22,-1.005826329517900e-12
	-4.351384316565783e-04,4.611970191195310e-13
50		3.162277660168374e+00,0.000000000000000e+00
	-4.351384316565783e+00,4.719396777257890e-09
	1.000000000000000e+00,0.000000000000000e+00
	0.000000000000000e+00,0.000000000000000e+00
	4.351384316565783e-04,-4.719396777257890e-13
	4.355034387414006e-22,1.029255034447140e-12
	4.351384324478152e-12,-1.828027520185222e-14
	-4.351384360079626e-04,-5.390350815194984e-13
	-4.351384316565783e-04,4.719396777257890e-13
	-4.355034387414006e-22,-1.029255034447140e-12
	-4.351384316565783e-04,4.719396777257890e-13
51		3.235936569296277e+00,0.000000000000000e+00
	-4.351384316565783e+00,4.829325649960375e-09
	1.000000000000000e+00,0.000000000000000e+00
	0.000000000000000e+00,0.000000000000000e+00
	4.351384316565783e-04,-4.829325649960374e-13
	4.560280834804568e-22,1.053229464019444e-12
	4.351384324478152e-12,-1.870607751101902e-14
	-4.351384360079626e-04,-5.515908215123878e-13
	-4.351384316565783e-04,4.829325649960375e-13
	-4.560280834804568e-22,-1.053229464019444e-12
	-4.351384316565783e-04,4.829325649960375e-13
52		3.311311214825905e+00,0.000000000000000e+00
	-4.351384316565783e+00,4.941815095046149e-09
	1.000000000000000e+00,0.000000000000000e+00
	0.000000000000000e+00,0.000000000000000e+00
	4.351384316565783e-04,-4.941815095046150e-13
	4.775200249253250e-22,1.077762329794712e-12
	4.351384324478152e-12,-1.914179803008622e-14
	-4.351384360079626e-04,-5.644390222600106e-13
	-4.351384316565783e-04,4.941815095046149e-13
	-4.775200249253250e-22,-1.077762329794712e-12
	-4.351384316565783e-04,4.941815095046149e-13
53		3.388441561392020e+00,0.000000000000000e+00
	-4.351384316565783e+00,5.056924755907972e-09
	1.000000000000000e+00,0.000000000000000e+00
	0.000000000000000e+00,0.000000000000000e+00
	4.351384316565783e-04,-5.056924755907972e-13
	5.000248503652848e-22,1.102866639423108e-12
	4.351384324478152e-12,-1.958766778384102e-14
	-4.351384360079626e-04,-5.775864960484694e-13
	-4.351384316565783e-04,5.056924755907972e-13
	-5.000248503652848e-22,-1.102866639423108e-12
	-4.351384316565783e-04,5.056924755907972e-13
54		3.467368504525310e+00,0.000000000000000e+00
	-4.351384316565783e+00,5.174715665211691e-09
	1.000000000000000e+00,0.000000000000000e+00
	0.000000000000000e+00,0.000000000000000e+00
	4.351384316565783e-04,-5.174715665211691e-13
	5.235902955523689e-22,1.128555703541891e-12
	4.351384324478152e-12,-2.004392317832789e-14
	-4.351384360079626e-04,-5.910402138423942e-13
	-4.351384316565783e-04,5.174715665211691e-13
	-5.235902955523689e-22,-1.128555703541891e-12
	-4.351384316565783e-04,5.174715665211691e-13
55		3.548133892335748e+00,0.000000000000000e+00
	-4.351384316565783e+00,5.295250277256565e-09
	1.000000000000000e+00,0.000000000000000e+00
	0.000000000000000e+00,0.000000000000000e+00
	4.351384316565783e-04,-5.295250277256565e-13
	5.482663459552935e-22,1.154843142832894e-12
	4.351384324478152e-12,-2.051080612619659e-14
	-4.351384360079626e-04,-6.048073089810405e-13
	-4.351384316565783e-04,5.295250277256565e-13
	-5.482663459552935e-22,-1.154843142832894e-12
	-4.351384316565783e-04,5.295250277256565e-13
56		3.630780547701007e+00,0.000000000000000e+00
	-4.351384316565783e+00,5.418592501089363e-09
	1.000000000000000e+00,0.000000000000000e+00
	0.000000000000000e+00,0.000000000000000e+00
	4.351384316565783e-04,-5.418592501089363e-13
	5.741053427853386e-22,1.181742895244382e-12
	4.351384324478152e-12,-2.098856417496629e-14
	-4.351384360079626e-04,-6.188950809604794e-13
	-4.351384316565783e-04,5.418592501089363e-13
	-5.741053427853386e-22,-1.181742895244382e-12
	-4.351384316565783e-04,5.418592501089363e-13
57		3.715352290971718e+00,0.000000000000000e+00
	-4.351384316565783e+00,5.544807734389790e-09
	1.000000000000000e+00,0.000000000000000e+00
	0.000000000000000e+00,0.000000000000000e+00
	4.351384316565783e-04,-5.544807734389790e-13
	6.011620940190757e-22,1.209269223381145e-12
	4.351384324478152e-12,-2.147745063827785e-14
	-4.351384360079626e-04,-6.333109993038886e-13
	-4.351384316565783e-04,5.544807734389790e-13
	-6.011620940190757e-22,-1.209269223381145e-12
	-4.351384316565783e-04,5.544807734389790e-13
58		3.801893963205605e+00,0.000000000000000e+00