Title: * GA CMOS Amp | W=1.3613818301169321e-05 L=1e-06 Vbias=1.4709343426983492
Date: Sat Sep  6 22:13:24 2025
Plotname: AC Analysis
Flags: complex forward log
No. Variables: 13
No. Points:          901
Offset:    0.0000000000000000e+00
Command: Linear Technology Corporation LTspice
Variables:
	0	frequency	frequency
	1	V(out)	voltage
	2	V(g)	voltage
	3	V(vdd)	voltage
	4	V(m1#dbody)	voltage
	5	V(m1#sbody)	voltage
	6	Id(M1)	device_current
	7	Ig(M1)	device_current
	8	Ib(M1)	device_current
	9	Is(M1)	device_current
	10	I(Rload)	device_current
	11	I(Vg)	device_current
	12	I(Vdd)	device_current
Values:
0		1.000000000000000e+00,0.000000000000000e+00
	3.243040870894821e-02,1.408390199757865e-09
	1.000000000000000e+00,0.000000000000000e+00
	0.000000000000000e+00,0.000000000000000e+00
	4.185823062054343e-04,1.508936321127010e-13
	4.185823059616351e-04,1.408495154568776e-13
	-3.243040870894833e-06,-1.408390199757864e-13
	2.604309578180902e-04,3.491134569015568e-12
	-2.232438966978869e-04,-7.587528231930439e-14
	-3.394402024930850e-05,-3.274420266720477e-12
	3.243040870894821e-06,1.408390199757865e-13
	-2.604309578181363e-04,-3.491134569015568e-12
	3.243040870894821e-06,1.408390199757865e-13
1		1.023292992280754e+00,0.000000000000000e+00
	3.243040870894821e-02,1.441195821809115e-09
	1.000000000000000e+00,0.000000000000000e+00
	0.000000000000000e+00,0.000000000000000e+00
	4.185823062054343e-04,1.544083963207172e-13
	4.185823059616351e-04,1.441303221331627e-13
	-3.243040870894833e-06,-1.441195821809118e-13
	2.604309578180902e-04,3.572453539582721e-12
	-2.232438966978869e-04,-7.764264468466799e-14
	-3.394402024930850e-05,-3.350691312717142e-12
	3.243040870894821e-06,1.441195821809115e-13
	-2.604309578181363e-04,-3.572453539582722e-12
	3.243040870894821e-06,1.441195821809115e-13
2		1.047128548050899e+00,0.000000000000000e+00
	3.243040870894821e-02,1.474765584961570e-09
	1.000000000000000e+00,0.000000000000000e+00
	0.000000000000000e+00,0.000000000000000e+00
	4.185823062054343e-04,1.580050299042992e-13
	4.185823059616351e-04,1.474875486140330e-13
	-3.243040870894833e-06,-1.474765584961572e-13
	2.604309578180902e-04,3.655666672303575e-12
	-2.232438966978869e-04,-7.945117420796528e-14
	-3.394402024930850e-05,-3.428738939599452e-12
	3.243040870894821e-06,1.474765584961570e-13
	-2.604309578181363e-04,-3.655666672303575e-12
	3.243040870894821e-06,1.474765584961570e-13
3		1.071519305237606e+00,0.000000000000000e+00
	3.243040870894821e-02,1.509117288348001e-09
	1.000000000000000e+00,0.000000000000000e+00
	0.000000000000000e+00,0.000000000000000e+00
	4.185823062054343e-04,1.616854398461803e-13
	4.185823059616351e-04,1.509229749454070e-13
	-3.243040870894833e-06,-1.509117288348004e-13
	2.604309578180902e-04,3.740818087882551e-12
	-2.232438966978869e-04,-8.130182979548827e-14
	-3.394402024930850e-05,-3.508604529252262e-12
	3.243040870894821e-06,1.509117288348001e-13
	-2.604309578181363e-04,-3.740818087882552e-12
	3.243040870894821e-06,1.509117288348001e-13
4		1.096478196143185e+00,0.000000000000000e+00
	3.243040870894821e-02,1.544269145696243e-09
	1.000000000000000e+00,0.000000000000000e+00
	0.000000000000000e+00,0.000000000000000e+00
	4.185823062054343e-04,1.654515775484277e-13
	4.185823059616351e-04,1.544384226357988e-13
	-3.243040870894840e-06,-1.544269145696245e-13
	2.604309578180902e-04,3.827952934727304e-12
	-2.232438966978869e-04,-8.319559268932574e-14
	-3.394402024930850e-05,-3.590330427468355e-12
	3.243040870894821e-06,1.544269145696244e-13
	-2.604309578181363e-04,-3.827952934727304e-12
	3.243040870894821e-06,1.544269145696244e-13
5		1.122018454301963e+00,0.000000000000000e+00
	3.243040870894821e-02,1.580239794986353e-09
	1.000000000000000e+00,0.000000000000000e+00
	0.000000000000000e+00,0.000000000000000e+00
	4.185823062054343e-04,1.693054398671019e-13
	4.185823059616351e-04,1.580357556221063e-13
	-3.243040870894840e-06,-1.580239794986357e-13
	2.604309578180902e-04,3.917117412886998e-12
	-2.232438966978869e-04,-8.513346698763099e-14
	-3.394402024930850e-05,-3.673959966400732e-12
	3.243040870894821e-06,1.580239794986353e-13
	-2.604309578181363e-04,-3.917117412886998e-12
	3.243040870894821e-06,1.580239794986353e-13
6		1.148153621496882e+00,0.000000000000000e+00
	3.243040870894821e-02,1.617048308332711e-09
	1.000000000000000e+00,0.000000000000000e+00
	0.000000000000000e+00,0.000000000000000e+00
	4.185823062054343e-04,1.732490701710160e-13
	4.185823059616351e-04,1.617168812578952e-13
	-3.243040870894840e-06,-1.617048308332712e-13
	2.604309578180902e-04,4.008358798548183e-12
	-2.232438966978869e-04,-8.711648017700772e-14
	-3.394402024930850e-05,-3.759537487537903e-12
	3.243040870894821e-06,1.617048308332711e-13
	-2.604309578181363e-04,-4.008358798548182e-12
	3.243040870894821e-06,1.617048308332711e-13
7		1.174897554939529e+00,0.000000000000000e+00
	3.243040870894821e-02,1.654714202096311e-09
	1.000000000000000e+00,0.000000000000000e+00
	0.000000000000000e+00,0.000000000000000e+00
	4.185823062054343e-04,1.772845594251572e-13
	4.185823059616351e-04,1.654837513247030e-13
	-3.243040870894840e-06,-1.654714202096316e-13
	2.604309578180902e-04,4.101725469101258e-12
	-2.232438966978869e-04,-8.914568367729722e-14
	-3.394402024930850e-05,-3.847108365214329e-12
	3.243040870894821e-06,1.654714202096311e-13
	-2.604309578181363e-04,-4.101725469101257e-12
	3.243040870894821e-06,1.654714202096311e-13
8		1.202264434617413e+00,0.000000000000000e+00
	3.243040870894821e-02,1.693257447232594e-09
	1.000000000000000e+00,0.000000000000000e+00
	0.000000000000000e+00,0.000000000000000e+00
	4.185823062054343e-04,1.814140472993443e-13
	4.185823059616351e-04,1.693383630668995e-13
	-3.243040870894833e-06,-1.693257447232606e-13
	2.604309578180902e-04,4.197266928790807e-12
	-2.232438966978869e-04,-9.122215339905506e-14
	-3.394402024930850e-05,-3.936719030668492e-12
	3.243040870894822e-06,1.693257447232595e-13
	-2.604309578181363e-04,-4.197266928790805e-12
	3.243040870894822e-06,1.693257447232595e-13
9		1.230268770812381e+00,0.000000000000000e+00
	3.243040870894821e-02,1.732698479880313e-09
	1.000000000000000e+00,0.000000000000000e+00
	0.000000000000000e+00,0.000000000000000e+00
	4.185823062054343e-04,1.856397233027083e-13
	4.185823059616351e-04,1.732827602506523e-13
	-3.243040870894833e-06,-1.732698479880310e-13
	2.604309578180902e-04,4.295033834963394e-12
	-2.232438966978869e-04,-9.334699031401301e-14
	-3.394402024930850e-05,-4.028416996661351e-12
	3.243040870894822e-06,1.732698479880313e-13
	-2.604309578181363e-04,-4.295033834963395e-12
	3.243040870894822e-06,1.732698479880313e-13
10		1.258925411794167e+00,0.000000000000000e+00
	3.243040870894821e-02,1.773058212197039e-09
	1.000000000000000e+00,0.000000000000000e+00
	0.000000000000000e+00,0.000000000000000e+00
	4.185823062054343e-04,1.899638279445996e-13
	4.185823059616351e-04,1.773190342475586e-13
	-3.243040870894833e-06,-1.773058212197048e-13
	2.604309578180902e-04,4.395078024926776e-12
	-2.232438966978869e-04,-9.552132103882896e-14
	-3.394402024930850e-05,-4.122250882668243e-12
	3.243040870894822e-06,1.773058212197039e-13
	-2.604309578181363e-04,-4.395078024926774e-12
	3.243040870894822e-06,1.773058212197039e-13
11		1.288249551693134e+00,0.000000000000000e+00
	3.243040870894821e-02,1.814358043447073e-09
	1.000000000000000e+00,0.000000000000000e+00
	0.000000000000000e+00,0.000000000000000e+00
	4.185823062054343e-04,1.943886539225357e-13
	4.185823059616351e-04,1.814493251435177e-13
	-3.243040870894833e-06,-1.814358043447077e-13
	2.604309578180902e-04,4.497452543434709e-12
	-2.232438966978869e-04,-9.774629843243383e-14
	-3.394402024930850e-05,-4.218270440657567e-12
	3.243040870894822e-06,1.814358043447073e-13
	-2.604309578181363e-04,-4.497452543434707e-12
	3.243040870894822e-06,1.814358043447073e-13
12		1.318256738556407e+00,0.000000000000000e+00
	3.243040870894821e-02,1.856619871347610e-09
	1.000000000000000e+00,0.000000000000000e+00
	0.000000000000000e+00,0.000000000000000e+00
	4.185823062054343e-04,1.989165473378195e-13
	4.185823059616351e-04,1.856758228734337e-13
	-3.243040870894833e-06,-1.856619871347616e-13
	2.604309578180902e-04,4.602211670811991e-12
	-2.232438966978869e-04,-1.000231022072928e-13
	-3.394402024930850e-05,-4.316526581469937e-12
	3.243040870894822e-06,1.856619871347610e-13
	-2.604309578181363e-04,-4.602211670811990e-12
	3.243040870894822e-06,1.856619871347610e-13
13		1.348962882591653e+00,0.000000000000000e+00
	3.243040870894821e-02,1.899866103679204e-09
	1.000000000000000e+00,0.000000000000000e+00
	0.000000000000000e+00,0.000000000000000e+00
	4.185823062054343e-04,2.035499089394736e-13
	4.185823059616351e-04,1.900007683823473e-13
	-3.243040870894833e-06,-1.899866103679211e-13
	2.604309578180902e-04,4.709410951734611e-12
	-2.232438966978869e-04,-1.023529395549044e-13
	-3.394402024930850e-05,-4.417071401811786e-12
	3.243040870894822e-06,1.899866103679204e-13
	-2.604309578181363e-04,-4.709410951734609e-12
	3.243040870894822e-06,1.899866103679204e-13
14		1.380384264602885e+00,0.000000000000000e+00
	3.243040870894821e-02,1.944119670166670e-09
	1.000000000000000e+00,0.000000000000000e+00
	0.000000000000000e+00,0.000000000000000e+00
	4.185823062054343e-04,2.082911953971490e-13
	4.185823059616351e-04,1.944264548136147e-13
	-3.243040870894833e-06,-1.944119670166672e-13
	2.604309578180902e-04,4.819107224680264e-12
	-2.232438966978869e-04,-1.047370457858693e-13
	-3.394402024930850e-05,-4.519958211877727e-12
	3.243040870894822e-06,1.944119670166670e-13
	-2.604309578181363e-04,-4.819107224680264e-12
	3.243040870894822e-06,1.944119670166670e-13
15		1.412537544622754e+00,0.000000000000000e+00
	3.243040870894821e-02,1.989404034636725e-09
	1.000000000000000e+00,0.000000000000000e+00
	0.000000000000000e+00,0.000000000000000e+00
	4.185823062054343e-04,2.131429206036839e-13
	4.185823059616351e-04,1.989552287247626e-13
	-3.243040870894833e-06,-1.989404034636728e-13
	2.604309578180902e-04,4.931358652064867e-12
	-2.232438966978869e-04,-1.071766849848685e-13
	-3.394402024930850e-05,-4.625241563616326e-12
	3.243040870894822e-06,1.989404034636725e-13
	-2.604309578181363e-04,-4.931358652064868e-12
	3.243040870894822e-06,1.989404034636725e-13
16		1.445439770745927e+00,0.000000000000000e+00
	3.243040870894821e-02,2.035743207458818e-09
	1.000000000000000e+00,0.000000000000000e+00
	0.000000000000000e+00,0.000000000000000e+00
	4.185823062054343e-04,2.181076570080028e-13
	4.185823059616351e-04,2.035894913316642e-13
	-3.243040870894833e-06,-2.035743207458826e-13
	2.604309578180902e-04,5.046224751081042e-12
	-2.232438966978869e-04,-1.096731506808978e-13
	-3.394402024930850e-05,-4.732977279654263e-12
	3.243040870894822e-06,2.035743207458818e-13
	-2.604309578181363e-04,-5.046224751081042e-12
	3.243040870894822e-06,2.035743207458818e-13
17		1.479108388168207e+00,0.000000000000000e+00
	3.243040870894821e-02,2.083161758275755e-09
	1.000000000000000e+00,0.000000000000000e+00
	0.000000000000000e+00,0.000000000000000e+00
	4.185823062054343e-04,2.231880369790636e-13
	4.185823059616351e-04,2.083316997816953e-13
	-3.243040870894833e-06,-2.083161758275751e-13
	2.604309578180902e-04,5.163766425254924e-12
	-2.232438966978869e-04,-1.122277665331140e-13
	-3.394402024930850e-05,-4.843222482894235e-12
	3.243040870894822e-06,2.083161758275755e-13
	-2.604309578181363e-04,-5.163766425254923e-12
	3.243040870894822e-06,2.083161758275755e-13
18		1.513561248436208e+00,0.000000000000000e+00
	3.243040870894821e-02,2.131684829030834e-09
	1.000000000000000e+00,0.000000000000000e+00
	0.000000000000000e+00,0.000000000000000e+00
	4.185823062054343e-04,2.283867542015736e-13
	4.185823059616351e-04,2.131843684565467e-13
	-3.243040870894833e-06,-2.131684829030842e-13
	2.604309578180902e-04,5.284045996738006e-12
	-2.232438966978869e-04,-1.148418870326561e-13
	-3.394402024930850e-05,-4.956035626802266e-12
	3.243040870894822e-06,2.131684829030834e-13
	-2.604309578181363e-04,-5.284045996738005e-12
	3.243040870894822e-06,2.131684829030834e-13
19		1.548816618912481e+00,0.000000000000000e+00
	3.243040870894821e-02,2.181338147298450e-09
	1.000000000000000e+00,0.000000000000000e+00
	0.000000000000000e+00,0.000000000000000e+00
	4.185823062054343e-04,2.337065651042173e-13
	4.185823059616351e-04,2.181500703053824e-13
	-3.243040870894833e-06,-2.181338147298457e-13
	2.604309578180902e-04,5.407127239351173e-12
	-2.232438966978869e-04,-1.175168982208149e-13
	-3.394402024930850e-05,-5.071476526400512e-12
	3.243040870894822e-06,2.181338147298450e-13
	-2.604309578181363e-04,-5.407127239351172e-12
	3.243040870894822e-06,2.181338147298450e-13
20		1.584893192461113e+00,0.000000000000000e+00
	3.243040870894821e-02,2.232148039925187e-09
	1.000000000000000e+00,0.000000000000000e+00
	0.000000000000000e+00,0.000000000000000e+00
	4.185823062054343e-04,2.391502903211514e-13
	4.185823059616351e-04,2.232314382090517e-13
	-3.243040870894833e-06,-2.232148039925191e-13
	2.604309578180902e-04,5.533075412398436e-12
	-2.232438966978869e-04,-1.202542184239306e-13
	-3.394402024930850e-05,-5.189606389981986e-12
	3.243040870894822e-06,2.232148039925187e-13
	-2.604309578181363e-04,-5.533075412398435e-12
	3.243040870894822e-06,2.232148039925187e-13
21		1.621810097358929e+00,0.000000000000000e+00
	3.243040870894821e-02,2.284141446988665e-09
	1.000000000000000e+00,0.000000000000000e+00
	0.000000000000000e+00,0.000000000000000e+00
	4.185823062054343e-04,2.447208161875421e-13
	4.185823059616351e-04,2.284311663760768e-13
	-3.243040870894833e-06,-2.284141446988666e-13
	2.604309578180902e-04,5.661957295268262e-12
	-2.232438966978869e-04,-1.230552990054073e-13
	-3.394402024930850e-05,-5.310487851563988e-12
	3.243040870894822e-06,2.284141446988665e-13
	-2.604309578181363e-04,-5.661957295268261e-12
	3.243040870894822e-06,2.284141446988665e-13
22		1.659586907437560e+00,0.000000000000000e+00
	3.243040870894821e-02,2.337345936081523e-09
	1.000000000000000e+00,0.000000000000000e+00
	0.000000000000000e+00,0.000000000000000e+00
	4.185823062054343e-04,2.504210962699383e-13
	4.185823059616351e-04,2.337520117711583e-13
	-3.243040870894833e-06,-2.337345936081523e-13
	2.604309578180902e-04,5.793841222840907e-12
	-2.232438966978869e-04,-1.259216251352461e-13
	-3.394402024930851e-05,-5.434185004097508e-12
	3.243040870894822e-06,2.337345936081523e-13
	-2.604309578181363e-04,-5.793841222840904e-12
	3.243040870894822e-06,2.337345936081523e-13
23		1.698243652461743e+00,0.000000000000000e+00
	3.243040870894821e-02,2.391789716928122e-09
	1.000000000000000e+00,0.000000000000000e+00
	0.000000000000000e+00,0.000000000000000e+00
	4.185823062054343e-04,2.562541529322920e-13
	4.185823059616351e-04,2.391967955769547e-13
	-3.243040870894833e-06,-2.391789716928124e-13
	2.604309578180902e-04,5.928797121720454e-12
	-2.232438966978869e-04,-1.288547165775015e-13
	-3.394402024930851e-05,-5.560763433450140e-12
	3.243040870894822e-06,2.391789716928122e-13
	-2.604309578181363e-04,-5.928797121720453e-12
	3.243040870894822e-06,2.391789716928122e-13
24		1.737800828749374e+00,0.000000000000000e+00
	3.243040870894821e-02,2.447501656341715e-09
	1.000000000000000e+00,0.000000000000000e+00
	0.000000000000000e+00,0.000000000000000e+00
	4.185823062054343e-04,2.622230789384551e-13
	4.185823059616351e-04,2.447684046899098e-13
	-3.243040870894833e-06,-2.447501656341718e-13
	2.604309578180902e-04,6.066896547310845e-12
	-2.232438966978869e-04,-1.318561284960799e-13
	-3.394402024930851e-05,-5.690290253180593e-12
	3.243040870894822e-06,2.447501656341715e-13
	-2.604309578181363e-04,-6.066896547310843e-12
	3.243040870894822e-06,2.447501656341715e-13
25		1.778279410038922e+00,0.000000000000000e+00
	3.243040870894821e-02,2.504511293530016e-09
	1.000000000000000e+00,0.000000000000000e+00
	0.000000000000000e+00,0.000000000000000e+00
	4.185823062054343e-04,2.683310390920041e-13
	4.185823059616351e-04,2.504697932509244e-13
	-3.243040870894833e-06,-2.504511293530015e-13
	2.604309578180902e-04,6.208212721755491e-12
	-2.232438966978869e-04,-1.349274522793093e-13
	-3.394402024930851e-05,-5.822834140123180e-12
	3.243040870894822e-06,2.504511293530016e-13
	-2.604309578181363e-04,-6.208212721755489e-12
	3.243040870894822e-06,2.504511293530016e-13
26		1.819700858609982e+00,0.000000000000000e+00
	3.243040870894821e-02,2.562848855757272e-09
	1.000000000000000e+00,0.000000000000000e+00
	0.000000000000000e+00,0.000000000000000e+00
	4.185823062054343e-04,2.745812719142609e-13
	4.185823059616351e-04,2.563039842116803e-13
	-3.243040870894833e-06,-2.562848855757281e-13
	2.604309578180902e-04,6.352820572760621e-12
	-2.232438966978869e-04,-1.380703163837130e-13
	-3.394402024930851e-05,-5.958465370801179e-12
	3.243040870894822e-06,2.562848855757272e-13
	-2.604309578181363e-04,-6.352820572760618e-12
	3.243040870894822e-06,2.562848855757272e-13
27		1.862087136662866e+00,0.000000000000000e+00
	3.243040870894821e-02,2.622545274371166e-09
	1.000000000000000e+00,0.000000000000000e+00
	0.000000000000000e+00,0.000000000000000e+00
	4.185823062054343e-04,2.809770913613994e-13
	4.185823059616351e-04,2.622740709374494e-13
	-3.243040870894833e-06,-2.622545274371162e-13
	2.604309578180902e-04,6.500796773322948e-12
	-2.232438966978869e-04,-1.412863871974401e-13
	-3.394402024930851e-05,-6.097255858688393e-12
	3.243040870894822e-06,2.622545274371166e-13
	-2.604309578181363e-04,-6.500796773322948e-12
	3.243040870894822e-06,2.622545274371166e-13
28		1.905460717963246e+00,0.000000000000000e+00
	3.243040870894821e-02,2.683632201203021e-09
	1.000000000000000e+00,0.000000000000000e+00
	0.000000000000000e+00,0.000000000000000e+00
	4.185823062054343e-04,2.875218885815492e-13
	4.185823059616351e-04,2.683832188472374e-13
	-3.243040870894840e-06,-2.683632201203026e-13
	2.604309578180902e-04,6.652219782382711e-12
	-2.232438966978869e-04,-1.445773699238057e-13
	-3.394402024930851e-05,-6.239279192338603e-12
	3.243040870894822e-06,2.683632201203021e-13
	-2.604309578181363e-04,-6.652219782382711e-12
	3.243040870894822e-06,2.683632201203021e-13
29		1.949844599758044e+00,0.000000000000000e+00
	3.243040870894821e-02,2.746142025350026e-09
	1.000000000000000e+00,0.000000000000000e+00
	0.000000000000000e+00,0.000000000000000e+00
	4.185823062054343e-04,2.942191337128270e-13
	4.185823059616351e-04,2.746346670921300e-13
	-3.243040870894840e-06,-2.746142025350034e-13
	2.604309578180902e-04,6.807169886423633e-12
	-2.232438966978869e-04,-1.479450094854126e-13
	-3.394402024930851e-05,-6.384610674403216e-12
	3.243040870894822e-06,2.746142025350026e-13
	-2.604309578181363e-04,-6.807169886423632e-12
	3.243040870894822e-06,2.746142025350026e-13
30		1.995262314968878e+00,0.000000000000000e+00
	3.243040870894821e-02,2.810107890348359e-09
	1.000000000000000e+00,0.000000000000000e+00
	0.000000000000000e+00,0.000000000000000e+00
	4.185823062054343e-04,3.010723777232501e-13
	4.185823059616351e-04,2.810317302727345e-13
	-3.243040870894840e-06,-2.810107890348363e-13
	2.604309578180902e-04,6.965729242041879e-12
	-2.232438966978869e-04,-1.513910914493325e-13
	-3.394402024930851e-05,-6.533327361557711e-12
	3.243040870894822e-06,2.810107890348359e-13
	-2.604309578181363e-04,-6.965729242041878e-12
	3.243040870894822e-06,2.810107890348359e-13
31		2.041737944669527e+00,0.000000000000000e+00
	3.243040870894821e-02,2.875563711746329e-09
	1.000000000000000e+00,0.000000000000000e+00
	0.000000000000000e+00,0.000000000000000e+00
	4.185823062054343e-04,3.080852542935059e-13
	4.185823059616351e-04,2.875778001966241e-13
	-3.243040870894840e-06,-2.875563711746325e-13
	2.604309578180902e-04,7.127981919506583e-12
	-2.232438966978869e-04,-1.549174429738367e-13
	-3.394402024930851e-05,-6.685508105358114e-12
	3.243040870894822e-06,2.875563711746329e-13
	-2.604309578181363e-04,-7.127981919506582e-12
	3.243040870894822e-06,2.875563711746329e-13
32		2.089296130854037e+00,0.000000000000000e+00
	3.243040870894822e-02,2.942544195086853e-09
	1.000000000000000e+00,0.000000000000000e+00
	0.000000000000000e+00,0.000000000000000e+00
	4.185823062054343e-04,3.152614817435789e-13
	4.185823059616351e-04,2.942763476767205e-13
	-3.243040870894833e-06,-2.942544195086860e-13
	2.604309578180902e-04,7.294013947335005e-12
	-2.232438966978869e-04,-1.585259337771805e-13
	-3.394402024930852e-05,-6.841233594049139e-12
	3.243040870894822e-06,2.942544195086853e-13
	-2.604309578181363e-04,-7.294013947335004e-12
	3.243040870894822e-06,2.942544195086853e-13
33		2.137962089502230e+00,0.000000000000000e+00
	3.243040870894822e-02,3.011084854308789e-09
	1.000000000000000e+00,0.000000000000000e+00
	0.000000000000000e+00,0.000000000000000e+00
	4.185823062054343e-04,3.226048650042512e-13
	4.185823059616351e-04,3.011309243715629e-13
	-3.243040870894833e-06,-3.011084854308792e-13
	2.604309578180902e-04,7.463913357905990e-12
	-2.232438966978869e-04,-1.622184771289517e-13
	-3.394402024930852e-05,-7.000586395346161e-12
	3.243040870894822e-06,3.011084854308789e-13
	-2.604309578181363e-04,-7.463913357905992e-12
	3.243040870894822e-06,3.011084854308789e-13
34		2.187761623949550e+00,0.000000000000000e+00
	3.243040870894822e-02,3.081222030576898e-09
	1.000000000000000e+00,0.000000000000000e+00
	0.000000000000000e+00,0.000000000000000e+00
	4.185823062054343e-04,3.301192976345288e-13
	4.185823059616351e-04,3.081451646684460e-13
	-3.243040870894833e-06,-3.081222030576907e-13
	2.604309578180902e-04,7.637770234135913e-12
	-2.232438966978869e-04,-1.659970308645120e-13
	-3.394402024930852e-05,-7.163651000213710e-12
	3.243040870894822e-06,3.081222030576898e-13
	-2.604309578181363e-04,-7.637770234135911e-12
	3.243040870894822e-06,3.081222030576898e-13
35		2.238721138568337e+00,0.000000000000000e+00
	3.243040870894822e-02,3.152992911550416e-09
	1.000000000000000e+00,0.000000000000000e+00
	0.000000000000000e+00,0.000000000000000e+00
	4.185823062054343e-04,3.378087638860579e-13
	4.185823059616351e-04,3.153227876104198e-13
	-3.243040870894833e-06,-3.152992911550418e-13
	2.604309578180902e-04,7.815676757241813e-12
	-2.232438966978869e-04,-1.698635984230672e-13
	-3.394402024930852e-05,-7.330513867663705e-12
	3.243040870894822e-06,3.152992911550416e-13
	-2.604309578181363e-04,-7.815676757241815e-12
	3.243040870894822e-06,3.152992911550416e-13
36		2.290867652767770e+00,0.000000000000000e+00
	3.243040870894822e-02,3.226435551100432e-09
	1.000000000000000e+00,0.000000000000000e+00
	0.000000000000000e+00,0.000000000000000e+00
	4.185823062054343e-04,3.456773408156269e-13
	4.185823059616351e-04,3.226675988681752e-13
	-3.243040870894833e-06,-3.226435551100443e-13
	2.604309578180902e-04,7.997727255617118e-12
	-2.232438966978869e-04,-1.738202299099168e-13
	-3.394402024930852e-05,-7.501263470597157e-12
	3.243040870894822e-06,3.226435551100432e-13
	-2.604309578181363e-04,-7.997727255617117e-12
	3.243040870894822e-06,3.226435551100432e-13
37		2.344228815319919e+00,0.000000000000000e+00
	3.243040870894822e-02,3.301588889486565e-09
	1.000000000000000e+00,0.000000000000000e+00
	0.000000000000000e+00,0.000000000000000e+00
	4.185823062054343e-04,3.537292004468769e-13
	4.185823059616351e-04,3.301834927578611e-13
	-3.243040870894833e-06,-3.301588889486570e-13
	2.604309578180902e-04,8.184018254845785e-12
	-2.232438966978869e-04,-1.778690231834474e-13
	-3.394402024930852e-05,-7.675990342713679e-12
	3.243040870894822e-06,3.301588889486566e-13
	-2.604309578181363e-04,-8.184018254845781e-12
	3.243040870894822e-06,3.301588889486566e-13
38		2.398832919019488e+00,0.000000000000000e+00
	3.243040870894822e-02,3.378492774003599e-09
	1.000000000000000e+00,0.000000000000000e+00
	0.000000000000000e+00,0.000000000000000e+00
	4.185823062054343e-04,3.619686119823633e-13
	4.185823059616351e-04,3.378744543059023e-13
	-3.243040870894833e-06,-3.378492774003600e-13
	2.604309578180902e-04,8.374648528881456e-12
	-2.232438966978869e-04,-1.820121249674447e-13
	-3.394402024930852e-05,-7.854787126513652e-12
	3.243040870894822e-06,3.378492774003599e-13
	-2.604309578181363e-04,-8.374648528881458e-12
	3.243040870894822e-06,3.378492774003599e-13
39		2.454708915685027e+00,0.000000000000000e+00
	3.243040870894822e-02,3.457187980109049e-09
	1.000000000000000e+00,0.000000000000000e+00
	0.000000000000000e+00,0.000000000000000e+00
	4.185823062054343e-04,3.703999440671439e-13
	4.185823059616351e-04,3.457445613619137e-13
	-3.243040870894840e-06,-3.457187980109040e-13
	2.604309578180902e-04,8.569719152418720e-12
	-2.232438966978869e-04,-1.862517319893151e-13
	-3.394402024930852e-05,-8.037748622418502e-12
	3.243040870894822e-06,3.457187980109049e-13
	-2.604309578181363e-04,-8.569719152418723e-12
	3.243040870894822e-06,3.457187980109049e-13
40		2.511886431509577e+00,0.000000000000000e+00
	3.243040870894822e-02,3.537716233042844e-09
	1.000000000000000e+00,0.000000000000000e+00
	0.000000000000000e+00,0.000000000000000e+00
	4.185823062054343e-04,3.790276671050915e-13
	4.185823059616351e-04,3.537979867608295e-13
	-3.243040870894840e-06,-3.537716233042855e-13
	2.604309578180902e-04,8.769333554484242e-12
	-2.232438966978869e-04,-1.905900921448193e-13
	-3.394402024930852e-05,-8.224971839035137e-12
	3.243040870894822e-06,3.537716233042844e-13
	-2.604309578181363e-04,-8.769333554484239e-12
	3.243040870894822e-06,3.537716233042844e-13
41		2.570395782768860e+00,0.000000000000000e+00
	3.243040870894822e-02,3.620120229950610e-09
	1.000000000000000e+00,0.000000000000000e+00
	0.000000000000000e+00,0.000000000000000e+00
	4.185823062054343e-04,3.878563556291626e-13
	4.185823059616351e-04,3.620390005353957e-13
	-3.243040870894840e-06,-3.620120229950628e-13
	2.604309578180902e-04,8.973597573276200e-12
	-2.232438966978869e-04,-1.950295056899367e-13
	-3.394402024930852e-05,-8.416556044591201e-12
	3.243040870894822e-06,3.620120229950610e-13
	-2.604309578181363e-04,-8.973597573276198e-12
	3.243040870894822e-06,3.620120229950610e-13
42		2.630267991895378e+00,0.000000000000000e+00
	3.243040870894822e-02,3.704443662522251e-09
	1.000000000000000e+00,0.000000000000000e+00
	0.000000000000000e+00,0.000000000000000e+00
	4.185823062054343e-04,3.968906907268742e-13
	4.185823059616351e-04,3.704719721801988e-13
	-3.243040870894840e-06,-3.704443662522248e-13
	2.604309578180902e-04,9.182619512281116e-12
	-2.232438966978869e-04,-1.995723264604917e-13
	-3.394402024930852e-05,-8.612602819568398e-12
	3.243040870894822e-06,3.704443662522252e-13
	-2.604309578181363e-04,-9.182619512281116e-12
	3.243040870894822e-06,3.704443662522252e-13
43		2.691534803926912e+00,0.000000000000000e+00
	3.243040870894823e-02,3.790731240157870e-09
	1.000000000000000e+00,0.000000000000000e+00
	0.000000000000000e+00,0.000000000000000e+00
	4.185823062054343e-04,4.061354625222786e-13
	4.185823059616351e-04,3.791013729684279e-13
	-3.243040870894833e-06,-3.790731240157877e-13
	2.604309578180902e-04,9.396510197697783e-12
	-2.232438966978869e-04,-2.042209631201881e-13
	-3.394402024930852e-05,-8.813216110561807e-12
	3.243040870894823e-06,3.790731240157871e-13
	-2.604309578181363e-04,-9.396510197697781e-12
	3.243040870894823e-06,3.790731240157871e-13
44		2.754228703338163e+00,0.000000000000000e+00
	3.243040870894823e-02,3.879028713673281e-09
	1.000000000000000e+00,0.000000000000000e+00
	0.000000000000000e+00,0.000000000000000e+00
	4.185823062054343e-04,4.155955727157504e-13
	4.185823059616351e-04,3.879317783226047e-13
	-3.243040870894833e-06,-3.879028713673281e-13
	2.604309578180902e-04,9.615383037198784e-12
	-2.232438966978869e-04,-2.089778804377148e-13
	-3.394402024930852e-05,-9.018502285393741e-12
	3.243040870894823e-06,3.879028713673281e-13
	-2.604309578181363e-04,-9.615383037198783e-12
	3.243040870894823e-06,3.879028713673281e-13
45		2.818382931264450e+00,0.000000000000000e+00
	3.243040870894823e-02,3.969382899557696e-09
	1.000000000000000e+00,0.000000000000000e+00
	0.000000000000000e+00,0.000000000000000e+00
	4.185823062054343e-04,4.252760371829339e-13
	4.185823059616351e-04,3.969678702405324e-13
	-3.243040870894833e-06,-3.969382899557703e-13
	2.604309578180902e-04,9.839354080060750e-12
	-2.232438966978869e-04,-2.138456005935989e-13
	-3.394402024930852e-05,-9.228570189511381e-12
	3.243040870894823e-06,3.969382899557696e-13
	-2.604309578181363e-04,-9.839354080060749e-12
	3.243040870894823e-06,3.969382899557696e-13
46		2.884031503126602e+00,0.000000000000000e+00
	3.243040870894823e-02,4.061841704796451e-09
	1.000000000000000e+00,0.000000000000000e+00
	0.000000000000000e+00,0.000000000000000e+00
	4.185823062054342e-04,4.351819886342257e-13
	4.185823059616350e-04,4.062144397777525e-13
	-3.243040870894833e-06,-4.061841704796447e-13
	2.604309578180902e-04,1.006854207869521e-11
	-2.232438966978868e-04,-2.188267045174988e-13
	-3.394402024930853e-05,-9.443531203698064e-12
	3.243040870894823e-06,4.061841704796451e-13
	-2.604309578181363e-04,-1.006854207869521e-11
	3.243040870894823e-06,4.061841704796451e-13
47		2.951209226666381e+00,0.000000000000000e+00
	3.243040870894823e-02,4.156454152271920e-09
	1.000000000000000e+00,0.000000000000000e+00
	0.000000000000000e+00,0.000000000000000e+00
	4.185823062054342e-04,4.453186793362059e-13
	4.185823059616350e-04,4.156763895878265e-13
	-3.243040870894840e-06,-4.156454152271934e-13
	2.604309578180902e-04,1.030306855161271e-11
	-2.232438966978868e-04,-2.239238332566477e-13
	-3.394402024930853e-05,-9.663499303128865e-12
	3.243040870894823e-06,4.156454152271920e-13
	-2.604309578181363e-04,-1.030306855161270e-11
	3.243040870894823e-06,4.156454152271920e-13
48		3.019951720402012e+00,0.000000000000000e+00
	3.243040870894823e-02,4.253270406756099e-09
	1.000000000000000e+00,0.000000000000000e+00
	0.000000000000000e+00,0.000000000000000e+00
	4.185823062054342e-04,4.556914838964599e-13
	4.185823059616350e-04,4.253587365217875e-13
	-3.243040870894840e-06,-4.253270406756090e-13
	2.604309578180902e-04,1.054305784785350e-11
	-2.232438966978868e-04,-2.291396893761717e-13
	-3.394402024930853e-05,-9.888591117801720e-12
	3.243040870894823e-06,4.253270406756099e-13
	-2.604309578181363e-04,-1.054305784785350e-11
	3.243040870894823e-06,4.253270406756099e-13
49		3.090295432513586e+00,0.000000000000000e+00
	3.243040870894823e-02,4.352341801508628e-09
	1.000000000000000e+00,0.000000000000000e+00
	0.000000000000000e+00,0.000000000000000e+00