Title: * Amplificador CMOS – W=2.0313518477389023e-05 L=8.945268434367407e-07 Vbias=0.9857039888068818
Date: Wed Jul 30 16:07:53 2025
Plotname: Operating Point
Flags: real
No. Variables: 12
No. Points:            1
Offset:    0.0000000000000000e+00
Command: Linear Technology Corporation LTspice
Variables:
	0	V(out)	voltage
	1	V(in)	voltage
	2	V(bias)	voltage
	3	V(vdd)	voltage
	4	Id(M1)	device_current
	5	Ig(M1)	device_current
	6	Ib(M1)	device_current
	7	Is(M1)	device_current
	8	I(Rload)	device_current
	9	I(Vbias)	device_current
	10	I(Vin)	device_current
	11	I(Vdd)	device_current
Values:
0		1.799999973757040e+00
	0.000000000000000e+00
	9.857039888068818e-01
	1.800000000000000e+00
	2.624295958707199e-12
	0.000000000000000e+00
	-2.805703962563922e-12
	1.814080038567233e-13
	-2.624295980524494e-12
	-1.814080038567235e-13
	0.000000000000000e+00
	-2.624295989935369e-12
