Title: * GA CMOS Amp | W=8.297993929460607e-06 L=7.501051436184194e-07 Vbias=0.7884650222036826
Date: Mon Sep  8 18:47:00 2025
Plotname: AC Analysis
Flags: complex forward log
No. Variables: 11
No. Points:          901
Offset:    0.0000000000000000e+00
Command: Linear Technology Corporation LTspice
Variables:
	0	frequency	frequency
	1	V(out)	voltage
	2	V(g)	voltage
	3	V(vdd)	voltage
	4	Id(M1)	device_current
	5	Ig(M1)	device_current
	6	Ib(M1)	device_current
	7	Is(M1)	device_current
	8	I(Rload)	device_current
	9	I(Vg)	device_current
	10	I(Vdd)	device_current
Values:
0		1.000000000000000e+00,0.000000000000000e+00
	-3.797936315631010e-01,1.435803182037499e-10
	1.000000000000000e+00,0.000000000000000e+00
	0.000000000000000e+00,0.000000000000000e+00
	3.797936315631011e-05,-1.435803182037499e-14
	1.497193345929335e-24,5.947154592313252e-14
	3.797936290006292e-13,-1.642549180134707e-15
	-3.797936353610374e-05,-4.347096492262282e-14
	-3.797936315631011e-05,1.435803182037499e-14
	-1.497193345929335e-24,-5.947154592313252e-14
	-3.797936315631011e-05,1.435803182037499e-14
1		1.023292992280754e+00,0.000000000000000e+00
	-3.797936315631010e-01,1.469247334473380e-10
	1.000000000000000e+00,0.000000000000000e+00
	0.000000000000000e+00,0.000000000000000e+00
	3.797936315631011e-05,-1.469247334473380e-14
	1.567753894474453e-24,6.085681618324456e-14
	3.797936290006292e-13,-1.680809065508336e-15
	-3.797936353610374e-05,-4.448353377300242e-14
	-3.797936315631011e-05,1.469247334473380e-14
	-1.567753894474453e-24,-6.085681618324456e-14
	-3.797936315631011e-05,1.469247334473380e-14
2		1.047128548050899e+00,0.000000000000000e+00
	-3.797936315631010e-01,1.503470501293787e-10
	1.000000000000000e+00,0.000000000000000e+00
	0.000000000000000e+00,0.000000000000000e+00
	3.797936315631011e-05,-1.503470501293788e-14
	1.641639859222177e-24,6.227435353283215e-14
	3.797936290006292e-13,-1.719960138096654e-15
	-3.797936353610374e-05,-4.551968838179762e-14
	-3.797936315631011e-05,1.503470501293788e-14
	-1.641639859222177e-24,-6.227435353283215e-14
	-3.797936315631011e-05,1.503470501293788e-14
3		1.071519305237606e+00,0.000000000000000e+00
	-3.797936315631010e-01,1.538490828074765e-10
	1.000000000000000e+00,0.000000000000000e+00
	0.000000000000000e+00,0.000000000000000e+00
	3.797936315631011e-05,-1.538490828074765e-14
	1.719007962209801e-24,6.372490956896134e-14
	3.797936290006292e-13,-1.760023156316530e-15
	-3.797936353610374e-05,-4.657997813189716e-14
	-3.797936315631011e-05,1.538490828074765e-14
	-1.719007962209801e-24,-6.372490956896134e-14
	-3.797936315631011e-05,1.538490828074765e-14
4		1.096478196143185e+00,0.000000000000000e+00
	-3.797936315631010e-01,1.574326883057121e-10
	1.000000000000000e+00,0.000000000000000e+00
	0.000000000000000e+00,0.000000000000000e+00
	3.797936315631011e-05,-1.574326883057121e-14
	1.800022311556683e-24,6.520925339564291e-14
	3.797936290006292e-13,-1.801019362110568e-15
	-3.797936353610374e-05,-4.766496520296113e-14
	-3.797936315631011e-05,1.574326883057121e-14
	-1.800022311556683e-24,-6.520925339564291e-14
	-3.797936315631011e-05,1.574326883057121e-14
5		1.122018454301963e+00,0.000000000000000e+00
	-3.797936315631010e-01,1.610997666991555e-10
	1.000000000000000e+00,0.000000000000000e+00
	0.000000000000000e+00,0.000000000000000e+00
	3.797936315631011e-05,-1.610997666991555e-14
	1.884854749559575e-24,6.672817203162137e-14
	3.797936290006292e-13,-1.842970492209696e-15
	-3.797936353610374e-05,-4.877522486949612e-14
	-3.797936315631011e-05,1.610997666991555e-14
	-1.884854749559575e-24,-6.672817203162137e-14
	-3.797936315631011e-05,1.610997666991555e-14
6		1.148153621496882e+00,0.000000000000000e+00
	-3.797936315631010e-01,1.648522623213102e-10
	1.000000000000000e+00,0.000000000000000e+00
	0.000000000000000e+00,0.000000000000000e+00
	3.797936315631011e-05,-1.648522623213102e-14
	1.973685217193159e-24,6.828247082766276e-14
	3.797936290006292e-13,-1.885898789658401e-15
	-3.797936353610374e-05,-4.991134580587334e-14
	-3.797936315631011e-05,1.648522623213102e-14
	-1.973685217193159e-24,-6.828247082766276e-14
	-3.797936315631011e-05,1.648522623213102e-14
7		1.174897554939529e+00,0.000000000000000e+00
	-3.797936315631010e-01,1.686921647950253e-10
	1.000000000000000e+00,0.000000000000000e+00
	0.000000000000000e+00,0.000000000000000e+00
	3.797936315631011e-05,-1.686921647950253e-14
	2.066702135788997e-24,6.987297389356231e-14
	3.797936290006292e-13,-1.929827015608185e-15
	-3.797936353610374e-05,-5.107393039845159e-14
	-3.797936315631011e-05,1.686921647950253e-14
	-2.066702135788997e-24,-6.987297389356231e-14
	-3.797936315631011e-05,1.686921647950253e-14
8		1.202264434617413e+00,0.000000000000000e+00
	-3.797936315631010e-01,1.726215100874195e-10
	1.000000000000000e+00,0.000000000000000e+00
	0.000000000000000e+00,0.000000000000000e+00
	3.797936315631011e-05,-1.726215100874195e-14
	2.164102806702425e-24,7.150052453509840e-14
	3.797936290006292e-13,-1.974778461385945e-15
	-3.797936353610374e-05,-5.226359506497051e-14
	-3.797936315631011e-05,1.726215100874195e-14
	-2.164102806702425e-24,-7.150052453509840e-14
	-3.797936315631011e-05,1.726215100874195e-14
9		1.230268770812381e+00,0.000000000000000e+00
	-3.797936315631010e-01,1.766423815893779e-10
	1.000000000000000e+00,0.000000000000000e+00
	0.000000000000000e+00,0.000000000000000e+00
	3.797936315631011e-05,-1.766423815893779e-14
	2.266093829815187e-24,7.316598570116431e-14
	3.797936290006292e-13,-2.020776960843200e-15
	-3.797936353610374e-05,-5.348097058138332e-14
	-3.797936315631011e-05,1.766423815893779e-14
	-2.266093829815187e-24,-7.316598570116431e-14
	-3.797936315631011e-05,1.766423815893779e-14
10		1.258925411794167e+00,0.000000000000000e+00
	-3.797936315631010e-01,1.807569112201933e-10
	1.000000000000000e+00,0.000000000000000e+00
	0.000000000000000e+00,0.000000000000000e+00
	3.797936315631011e-05,-1.807569112201934e-14
	2.372891541761479e-24,7.487024044131530e-14
	3.797936290006292e-13,-2.067846902993245e-15
	-3.797936353610374e-05,-5.472670241630272e-14
	-3.797936315631011e-05,1.807569112201933e-14
	-2.372891541761479e-24,-7.487024044131530e-14
	-3.797936315631011e-05,1.807569112201933e-14
11		1.288249551693134e+00,0.000000000000000e+00
	-3.797936315631010e-01,1.849672805579382e-10
	1.000000000000000e+00,0.000000000000000e+00
	0.000000000000000e+00,0.000000000000000e+00
	3.797936315631011e-05,-1.849672805579383e-14
	2.484722474806959e-24,7.661419237397307e-14
	3.797936290006292e-13,-2.116013244942440e-15
	-3.797936353610374e-05,-5.600145107323680e-14
	-3.797936315631011e-05,1.849672805579383e-14
	-2.484722474806959e-24,-7.661419237397307e-14
	-3.797936315631011e-05,1.849672805579383e-14
12		1.318256738556407e+00,0.000000000000000e+00
	-3.797936315631010e-01,1.892757219961664e-10
	1.000000000000000e+00,0.000000000000000e+00
	0.000000000000000e+00,0.000000000000000e+00
	3.797936315631011e-05,-1.892757219961664e-14
	2.601823837354048e-24,7.839876616553625e-14
	3.797936290006292e-13,-2.165301525122884e-15
	-3.797936353610374e-05,-5.730589244079672e-14
	-3.797936315631011e-05,1.892757219961664e-14
	-2.601823837354048e-24,-7.839876616553625e-14
	-3.797936315631011e-05,1.892757219961664e-14
13		1.348962882591653e+00,0.000000000000000e+00
	-3.797936315631010e-01,1.936845199275573e-10
	1.000000000000000e+00,0.000000000000000e+00
	0.000000000000000e+00,0.000000000000000e+00
	3.797936315631011e-05,-1.936845199275573e-14
	2.724444017092764e-24,8.022490802065072e-14
	3.797936290006292e-13,-2.215737876833067e-15
	-3.797936353610374e-05,-5.864071815106193e-14
	-3.797936315631011e-05,1.936845199275573e-14
	-2.724444017092764e-24,-8.022490802065072e-14
	-3.797936315631011e-05,1.936845199275573e-14
14		1.380384264602885e+00,0.000000000000000e+00
	-3.797936315631010e-01,1.981960119551314e-10
	1.000000000000000e+00,0.000000000000000e+00
	0.000000000000000e+00,0.000000000000000e+00
	3.797936315631011e-05,-1.981960119551315e-14
	2.852843107864307e-24,8.209358618389997e-14
	3.797936290006292e-13,-2.267349042094312e-15
	-3.797936353610374e-05,-6.000663594629251e-14
	-3.797936315631011e-05,1.981960119551315e-14
	-2.852843107864307e-24,-8.209358618389997e-14
	-3.797936315631011e-05,1.981960119551315e-14
15		1.412537544622754e+00,0.000000000000000e+00
	-3.797936315631010e-01,2.028125901316785e-10
	1.000000000000000e+00,0.000000000000000e+00
	0.000000000000000e+00,0.000000000000000e+00
	3.797936315631011e-05,-2.028125901316786e-14
	2.987293461354967e-24,8.400579145318097e-14
	3.797936290006292e-13,-2.320162385829596e-15
	-3.797936353610374e-05,-6.140437005418352e-14
	-3.797936315631011e-05,2.028125901316786e-14
	-2.987293461354967e-24,-8.400579145318097e-14
	-3.797936315631011e-05,2.028125901316786e-14
16		1.445439770745927e+00,0.000000000000000e+00
	-3.797936315631010e-01,2.075367022280555e-10
	1.000000000000000e+00,0.000000000000000e+00
	0.000000000000000e+00,0.000000000000000e+00
	3.797936315631011e-05,-2.075367022280555e-14
	3.128080264790572e-24,8.596253770503853e-14
	3.797936290006292e-13,-2.374205910372805e-15
	-3.797936353610374e-05,-6.283466157186017e-14
	-3.797936315631011e-05,2.075367022280555e-14
	-3.128080264790572e-24,-8.596253770503853e-14
	-3.797936315631011e-05,2.075367022280555e-14
17		1.479108388168207e+00,0.000000000000000e+00
	-3.797936315631010e-01,2.123708530310267e-10
	1.000000000000000e+00,0.000000000000000e+00
	0.000000000000000e+00,0.000000000000000e+00
	3.797936315631011e-05,-2.123708530310267e-14
	3.275502145856824e-24,8.796486243223602e-14
	3.797936290006292e-13,-2.429508270316044e-15
	-3.797936353610374e-05,-6.429826885881730e-14
	-3.797936315631011e-05,2.123708530310267e-14
	-3.275502145856824e-24,-8.796486243223602e-14
	-3.797936315631011e-05,2.123708530310267e-14
18		1.513561248436208e+00,0.000000000000000e+00
	-3.797936315631010e-01,2.173176056713356e-10
	1.000000000000000e+00,0.000000000000000e+00
	0.000000000000000e+00,0.000000000000000e+00
	3.797936315631011e-05,-2.173176056713356e-14
	3.429871806128662e-24,9.001382729384771e-14
	3.797936290006292e-13,-2.486098787702548e-15
	-3.797936353610374e-05,-6.579596793901160e-14
	-3.797936315631011e-05,2.173176056713356e-14
	-3.429871806128662e-24,-9.001382729384771e-14
	-3.797936315631011e-05,2.173176056713356e-14
19		1.548816618912481e+00,0.000000000000000e+00
	-3.797936315631010e-01,2.223795829827100e-10
	1.000000000000000e+00,0.000000000000000e+00
	0.000000000000000e+00,0.000000000000000e+00
	3.797936315631011e-05,-2.223795829827100e-14
	3.591516684352222e-24,9.211051867816443e-14
	3.797936290006292e-13,-2.544007467573698e-15
	-3.797936353610374e-05,-6.732855291231973e-14
	-3.797936315631011e-05,2.223795829827100e-14
	-3.591516684352222e-24,-9.211051867816443e-14
	-3.797936315631011e-05,2.223795829827100e-14
20		1.584893192461113e+00,0.000000000000000e+00
	-3.797936315631010e-01,2.275594688925235e-10
	1.000000000000000e+00,0.000000000000000e+00
	0.000000000000000e+00,0.000000000000000e+00
	3.797936315631011e-05,-2.275594688925236e-14
	3.760779650986322e-24,9.425604827871117e-14
	3.797936290006292e-13,-2.603265013878069e-15
	-3.797936353610374e-05,-6.889683637558074e-14
	-3.797936315631011e-05,2.275594688925235e-14
	-3.760779650986322e-24,-9.425604827871117e-14
	-3.797936315631011e-05,2.275594688925235e-14
21		1.621810097358929e+00,0.000000000000000e+00
	-3.797936315631010e-01,2.328600098448496e-10
	1.000000000000000e+00,0.000000000000000e+00
	0.000000000000000e+00,0.000000000000000e+00
	3.797936315631011e-05,-2.328600098448496e-14
	3.938019735476677e-24,9.645155368368158e-14
	3.797936290006292e-13,-2.663902845751095e-15
	-3.797936353610374e-05,-7.050164985344552e-14
	-3.797936315631011e-05,2.328600098448496e-14
	-3.938019735476677e-24,-9.645155368368158e-14
	-3.797936315631011e-05,2.328600098448496e-14
22		1.659586907437560e+00,0.000000000000000e+00
	-3.797936315631010e-01,2.382840162566620e-10
	1.000000000000000e+00,0.000000000000000e+00
	0.000000000000000e+00,0.000000000000000e+00
	3.797936315631011e-05,-2.382840162566621e-14
	4.123612887805480e-24,9.869819897910232e-14
	3.797936290006292e-13,-2.725953114173856e-15
	-3.797936353610374e-05,-7.214384423926226e-14
	-3.797936315631011e-05,2.382840162566620e-14
	-4.123612887805480e-24,-9.869819897910232e-14
	-3.797936315631011e-05,2.382840162566620e-14
23		1.698243652461743e+00,0.000000000000000e+00
	-3.797936315631010e-01,2.438343640079556e-10
	1.000000000000000e+00,0.000000000000000e+00
	0.000000000000000e+00,0.000000000000000e+00
	3.797936315631011e-05,-2.438343640079556e-14
	4.317952775931730e-24,1.009971753660469e-13
	3.797936290006292e-13,-2.789448719020009e-15
	-3.797936353610374e-05,-7.382429024623132e-14
	-3.797936315631011e-05,2.438343640079556e-14
	-4.317952775931730e-24,-1.009971753660469e-13
	-3.797936315631011e-05,2.438343640079556e-14
24		1.737800828749374e+00,0.000000000000000e+00
	-3.797936315631010e-01,2.495139959665754e-10
	1.000000000000000e+00,0.000000000000000e+00
	0.000000000000000e+00,0.000000000000000e+00
	3.797936315631011e-05,-2.495139959665755e-14
	4.521451620813743e-24,1.033497017922262e-13
	3.797936290006292e-13,-2.854423326499700e-15
	-3.797936353610374e-05,-7.554387886906893e-14
	-3.797936315631011e-05,2.495139959665755e-14
	-4.521451620813743e-24,-1.033497017922262e-13
	-3.797936315631011e-05,2.495139959665755e-14
25		1.778279410038922e+00,0.000000000000000e+00
	-3.797936315631010e-01,2.553259235485650e-10
	1.000000000000000e+00,0.000000000000000e+00
	0.000000000000000e+00,0.000000000000000e+00
	3.797936315631011e-05,-2.553259235485650e-14
	4.734541070785080e-24,1.057570255982907e-13
	3.797936290006292e-13,-2.920911387009858e-15
	-3.797936353610374e-05,-7.730352185642438e-14
	-3.797936315631011e-05,2.553259235485650e-14
	-4.734541070785080e-24,-1.057570255982907e-13
	-3.797936315631011e-05,2.553259235485650e-14
26		1.819700858609982e+00,0.000000000000000e+00
	-3.797936315631010e-01,2.612732283148581e-10
	1.000000000000000e+00,0.000000000000000e+00
	0.000000000000000e+00,0.000000000000000e+00
	3.797936315631011e-05,-2.612732283148581e-14
	4.957673117138530e-24,1.082204231791872e-13
	3.797936290006292e-13,-2.988948153400237e-15
	-3.797936353610374e-05,-7.910415219430118e-14
	-3.797936315631011e-05,2.612732283148581e-14
	-4.957673117138530e-24,-1.082204231791872e-13
	-3.797936315631011e-05,2.612732283148581e-14
27		1.862087136662866e+00,0.000000000000000e+00
	-3.797936315631010e-01,2.673590636051638e-10
	1.000000000000000e+00,0.000000000000000e+00
	0.000000000000000e+00,0.000000000000000e+00
	3.797936315631011e-05,-2.673590636051638e-14
	5.191321052860247e-24,1.107412006609200e-13
	3.797936290006292e-13,-3.058569699664981e-15
	-3.797936353610374e-05,-8.094672460073863e-14
	-3.797936315631011e-05,2.673590636051638e-14
	-5.191321052860247e-24,-1.107412006609200e-13
	-3.797936315631011e-05,2.673590636051638e-14
28		1.905460717963246e+00,0.000000000000000e+00
	-3.797936315631010e-01,2.735866562099085e-10
	1.000000000000000e+00,0.000000000000000e+00
	0.000000000000000e+00,0.000000000000000e+00
	3.797936315631011e-05,-2.735866562099085e-14
	5.435980476547616e-24,1.133206945930762e-13
	3.797936290006292e-13,-3.129812940069414e-15
	-3.797936353610374e-05,-8.283221603201596e-14
	-3.797936315631011e-05,2.735866562099085e-14
	-5.435980476547616e-24,-1.133206945930762e-13
	-3.797936315631011e-05,2.735866562099085e-14
29		1.949844599758044e+00,0.000000000000000e+00
	-3.797936315631010e-01,2.799593080811232e-10
	1.000000000000000e+00,0.000000000000000e+00
	0.000000000000000e+00,0.000000000000000e+00
	3.797936315631011e-05,-2.799593080811233e-14
	5.692170343640343e-24,1.159602726574825e-13
	3.797936290006292e-13,-3.202715648722664e-15
	-3.797936353610374e-05,-8.476162620064747e-14
	-3.797936315631011e-05,2.799593080811232e-14
	-5.692170343640343e-24,-1.159602726574825e-13
	-3.797936315631011e-05,2.799593080811232e-14
30		1.995262314968878e+00,0.000000000000000e+00
	-3.797936315631010e-01,2.864803980831821e-10
	1.000000000000000e+00,0.000000000000000e+00
	0.000000000000000e+00,0.000000000000000e+00
	3.797936315631011e-05,-2.864803980831821e-14
	5.960434067194502e-24,1.186613343933673e-13
	3.797936290006292e-13,-3.277316479605794e-15
	-3.797936353610374e-05,-8.673597810544331e-14
	-3.797936315631011e-05,2.864803980831821e-14
	-5.960434067194502e-24,-1.186613343933673e-13
	-3.797936315631011e-05,2.864803980831821e-14
31		2.041737944669527e+00,0.000000000000000e+00
	-3.797936315631010e-01,2.931533837843210e-10
	1.000000000000000e+00,0.000000000000000e+00
	0.000000000000000e+00,0.000000000000000e+00
	3.797936315631011e-05,-2.931533837843210e-14
	6.241340670534494e-24,1.214253119394160e-13
	3.797936290006292e-13,-3.353654987066851e-15
	-3.797936353610374e-05,-8.875631857391705e-14
	-3.797936315631011e-05,2.931533837843210e-14
	-6.241340670534494e-24,-1.214253119394160e-13
	-3.797936315631011e-05,2.931533837843210e-14
32		2.089296130854037e+00,0.000000000000000e+00
	-3.797936315631010e-01,2.999818032898861e-10
	1.000000000000000e+00,0.000000000000000e+00
	0.000000000000000e+00,0.000000000000000e+00
	3.797936315631011e-05,-2.999818032898862e-14
	6.535485994227813e-24,1.242536707931090e-13
	3.797936290006292e-13,-3.431771646792895e-15
	-3.797936353610374e-05,-9.082371881732746e-14
	-3.797936315631011e-05,2.999818032898861e-14
	-6.535485994227813e-24,-1.242536707931090e-13
	-3.797936315631011e-05,2.999818032898861e-14
33		2.137962089502230e+00,0.000000000000000e+00
	-3.797936315631010e-01,3.069692771182841e-10
	1.000000000000000e+00,0.000000000000000e+00
	0.000000000000000e+00,0.000000000000000e+00
	3.797936315631011e-05,-3.069692771182842e-14
	6.843493959942759e-24,1.271479105877482e-13
	3.797936290006292e-13,-3.511707877270955e-15
	-3.797936353610374e-05,-9.293927499864886e-14
	-3.797936315631011e-05,3.069692771182841e-14
	-6.843493959942759e-24,-1.271479105877482e-13
	-3.797936315631011e-05,3.069692771182841e-14
34		2.187761623949550e+00,0.000000000000000e+00
	-3.797936315631010e-01,3.141195101206290e-10
	1.000000000000000e+00,0.000000000000000e+00
	0.000000000000000e+00,0.000000000000000e+00
	3.797936315631011e-05,-3.141195101206291e-14
	7.166017893869962e-24,1.301095658875827e-13
	3.797936290006292e-13,-3.593506061748498e-15
	-3.797936353610374e-05,-9.510410881377125e-14
	-3.797936315631011e-05,3.141195101206291e-14
	-7.166017893869962e-24,-1.301095658875827e-13
	-3.797936315631011e-05,3.141195101206291e-14
35		2.238721138568337e+00,0.000000000000000e+00
	-3.797936315631010e-01,3.214362934451030e-10
	1.000000000000000e+00,0.000000000000000e+00
	0.000000000000000e+00,0.000000000000000e+00
	3.797936315631011e-05,-3.214362934451031e-14
	7.503741912514816e-24,1.331402070014544e-13
	3.797936290006292e-13,-3.677209570705632e-15
	-3.797936353610374e-05,-9.731936808623843e-14
	-3.797936315631011e-05,3.214362934451030e-14
	-7.503741912514816e-24,-1.331402070014544e-13
	-3.797936315631011e-05,3.214362934451030e-14
36		2.290867652767770e+00,0.000000000000000e+00
	-3.797936315631010e-01,3.289235065470741e-10
	1.000000000000000e+00,0.000000000000000e+00
	0.000000000000000e+00,0.000000000000000e+00
	3.797936315631011e-05,-3.289235065470741e-14
	7.857382373800320e-24,1.362414408153973e-13
	3.797936290006292e-13,-3.762862784850826e-15
	-3.797936353610374e-05,-9.958622737583905e-14
	-3.797936315631011e-05,3.289235065470741e-14
	-7.857382373800320e-24,-1.362414408153973e-13
	-3.797936315631011e-05,3.289235065470741e-14
37		2.344228815319919e+00,0.000000000000000e+00
	-3.797936315631010e-01,3.365851192460337e-10
	1.000000000000000e+00,0.000000000000000e+00
	0.000000000000000e+00,0.000000000000000e+00
	3.797936315631011e-05,-3.365851192460336e-14
	8.227689396558260e-24,1.394149116446291e-13
	3.797936290006292e-13,-3.850511118651875e-15
	-3.797936353610374e-05,-1.019058886013739e-13
	-3.797936315631011e-05,3.365851192460336e-14
	-8.227689396558260e-24,-1.394149116446291e-13
	-3.797936315631011e-05,3.365851192460336e-14
38		2.398832919019488e+00,0.000000000000000e+00
	-3.797936315631010e-01,3.444251938304482e-10
	1.000000000000000e+00,0.000000000000000e+00
	0.000000000000000e+00,0.000000000000000e+00
	3.797936315631011e-05,-3.444251938304483e-14
	8.615448451631831e-24,1.426623021053895e-13
	3.797936290006292e-13,-3.940201044415584e-15
	-3.797936353610374e-05,-1.042795816779291e-13
	-3.797936315631011e-05,3.444251938304482e-14
	-8.615448451631831e-24,-1.426623021053895e-13
	-3.797936315631011e-05,3.444251938304482e-14
39		2.454708915685027e+00,0.000000000000000e+00
	-3.797936315631010e-01,3.524478872116380e-10
	1.000000000000000e+00,0.000000000000000e+00
	0.000000000000000e+00,0.000000000000000e+00
	3.797936315631011e-05,-3.524478872116381e-14
	9.021482027964607e-24,1.459853340070849e-13
	3.797936290006292e-13,-4.031980116927784e-15
	-3.797936353610374e-05,-1.067085651689933e-13
	-3.797936315631011e-05,3.524478872116380e-14
	-9.021482027964607e-24,-1.459853340070849e-13
	-3.797936315631011e-05,3.524478872116380e-14
40		2.511886431509577e+00,0.000000000000000e+00
	-3.797936315631010e-01,3.606574531278268e-10
	1.000000000000000e+00,0.000000000000000e+00
	0.000000000000000e+00,0.000000000000000e+00
	3.797936315631011e-05,-3.606574531278268e-14
	9.446651377209862e-24,1.493857692652153e-13
	3.797936290006292e-13,-4.125896998667567e-15
	-3.797936353610374e-05,-1.091941269537650e-13
	-3.797936315631011e-05,3.606574531278268e-14
	-9.446651377209862e-24,-1.493857692652153e-13
	-3.797936315631011e-05,3.606574531278268e-14
41		2.570395782768860e+00,0.000000000000000e+00
	-3.797936315631010e-01,3.690582443995296e-10
	1.000000000000000e+00,0.000000000000000e+00
	0.000000000000000e+00,0.000000000000000e+00
	3.797936315631011e-05,-3.690582443995297e-14
	9.891858340560792e-24,1.528654108355644e-13
	3.797936290006292e-13,-4.222001485608674e-15
	-3.797936353610374e-05,-1.117375849100028e-13
	-3.797936315631011e-05,3.690582443995296e-14
	-9.891858340560792e-24,-1.528654108355644e-13
	-3.797936315631011e-05,3.690582443995296e-14
42		2.630267991895378e+00,0.000000000000000e+00
	-3.797936315631010e-01,3.776547152374766e-10
	1.000000000000000e+00,0.000000000000000e+00
	0.000000000000000e+00,0.000000000000000e+00
	3.797936315631011e-05,-3.776547152374767e-14
	1.035804726167660e-23,1.564261036701515e-13
	3.797936290006292e-13,-4.320344533622304e-15
	-3.797936353610374e-05,-1.143402876127816e-13
	-3.797936315631011e-05,3.776547152374766e-14
	-1.035804726167660e-23,-1.564261036701515e-13
	-3.797936315631011e-05,3.776547152374766e-14
43		2.691534803926912e+00,0.000000000000000e+00
	-3.797936315631010e-01,3.864514236042936e-10
	1.000000000000000e+00,0.000000000000000e+00
	0.000000000000000e+00,0.000000000000000e+00
	3.797936315631011e-05,-3.864514236042936e-14
	1.084620698976202e-23,1.600697356954488e-13
	3.797936290006292e-13,-4.420978285494166e-15
	-3.797936353610374e-05,-1.170036150495253e-13
	-3.797936315631011e-05,3.864514236042936e-14
	-1.084620698976202e-23,-1.600697356954488e-13
	-3.797936315631011e-05,3.864514236042936e-14
44		2.754228703338163e+00,0.000000000000000e+00
	-3.797936315631010e-01,3.954530336311947e-10
	1.000000000000000e+00,0.000000000000000e+00
	0.000000000000000e+00,0.000000000000000e+00
	3.797936315631011e-05,-3.954530336311948e-14
	1.135737297704902e-23,1.637982388133853e-13
	3.797936290006292e-13,-4.523956098571575e-15
	-3.797936353610374e-05,-1.197289793516942e-13
	-3.797936315631011e-05,3.954530336311948e-14
	-1.135737297704902e-23,-1.637982388133853e-13
	-3.797936315631011e-05,3.954530336311948e-14
45		2.818382931264450e+00,0.000000000000000e+00
	-3.797936315631010e-01,4.046643180909670e-10
	1.000000000000000e+00,0.000000000000000e+00
	0.000000000000000e+00,0.000000000000000e+00
	3.797936315631011e-05,-4.046643180909670e-14
	1.189262947512986e-23,1.676135899256666e-13
	3.797936290006292e-13,-4.629332573054091e-15
	-3.797936353610374e-05,-1.225178255435158e-13
	-3.797936315631011e-05,4.046643180909670e-14
	-1.189262947512986e-23,-1.676135899256666e-13
	-3.797936315631011e-05,4.046643180909670e-14
46		2.884031503126602e+00,0.000000000000000e+00
	-3.797936315631010e-01,4.140901609285565e-10
	1.000000000000000e+00,0.000000000000000e+00
	0.000000000000000e+00,0.000000000000000e+00
	3.797936315631011e-05,-4.140901609285565e-14
	1.245311183480006e-23,1.715178119819546e-13
	3.797936290006292e-13,-4.737163580943235e-15
	-3.797936353610374e-05,-1.253716323081557e-13
	-3.797936315631011e-05,4.140901609285565e-14
	-1.245311183480006e-23,-1.715178119819546e-13
	-3.797936315631011e-05,4.140901609285565e-14
47		2.951209226666381e+00,0.000000000000000e+00
	-3.797936315631010e-01,4.237355598506016e-10
	1.000000000000000e+00,0.000000000000000e+00
	0.000000000000000e+00,0.000000000000000e+00
	3.797936315631011e-05,-4.237355598506016e-14
	1.304000891428966e-23,1.755129750524621e-13
	3.797936290006292e-13,-4.847506295666854e-15
	-3.797936353610374e-05,-1.282919127717351e-13
	-3.797936315631011e-05,4.237355598506016e-14
	-1.304000891428966e-23,-1.755129750524621e-13
	-3.797936315631011e-05,4.237355598506016e-14
48		3.019951720402012e+00,0.000000000000000e+00
	-3.797936315631010e-01,4.336056289752828e-10
	1.000000000000000e+00,0.000000000000000e+00
	0.000000000000000e+00,0.000000000000000e+00
	3.797936315631011e-05,-4.336056289752828e-14
	1.365456560099092e-23,1.796011974255313e-13
	3.797936290006292e-13,-4.960419222392718e-15
	-3.797936353610374e-05,-1.312802153056103e-13
	-3.797936315631011e-05,4.336056289752828e-14
	-1.365456560099092e-23,-1.796011974255313e-13
	-3.797936315631011e-05,4.336056289752828e-14
49		3.090295432513586e+00,0.000000000000000e+00
	-3.797936315631010e-01,4.437056015438954e-10
	1.000000000000000e+00,0.000000000000000e+00
	0.000000000000000e+00,0.000000000000000e+00
	3.797936315631011e-05,-4.437056015438954e-14
	1.429808545203138e-23,1.837846467307784e-13
	3.797936290006292e-13,-5.075962229049226e-15
	-3.797936353610374e-05,-1.343381243473396e-13
	-3.797936315631011e-05,4.437056015438955e-14
	-1.429808545203138e-23,-1.837846467307784e-13
	-3.797936315631011e-05,4.437056015438955e-14
50		3.162277660168374e+00,0.000000000000000e+00
	-3.797936315631010e-01,4.540408326955847e-10
	1.000000000000000e+00,0.000000000000000e+00
	0.000000000000000e+00,0.000000000000000e+00
	3.797936315631011e-05,-4.540408326955848e-14
	1.497193345929330e-23,1.880655410883995e-13
	3.797936290006292e-13,-5.194196578067890e-15
	-3.797936353610374e-05,-1.374672612407732e-13
	-3.797936315631011e-05,4.540408326955848e-14
	-1.497193345929330e-23,-1.880655410883995e-13
	-3.797936315631011e-05,4.540408326955848e-14
51		3.235936569296277e+00,0.000000000000000e+00
	-3.797936315631010e-01,4.646168023067102e-10
	1.000000000000000e+00,0.000000000000000e+00
	0.000000000000000e+00,0.000000000000000e+00
	3.797936315631011e-05,-4.646168023067102e-14
	1.567753894474448e-23,1.924461502852475e-13
	3.797936290006292e-13,-5.315184958865528e-15
	-3.797936353610374e-05,-1.406692850957109e-13
	-3.797936315631011e-05,4.646168023067102e-14
	-1.567753894474448e-23,-1.924461502852475e-13
	-3.797936315631011e-05,4.646168023067102e-14
52		3.311311214825905e+00,0.000000000000000e+00
	-3.797936315631010e-01,4.754391178963490e-10
	1.000000000000000e+00,0.000000000000000e+00
	0.000000000000000e+00,0.000000000000000e+00
	3.797936315631011e-05,-4.754391178963491e-14
	1.641639859222171e-23,1.969287969783025e-13
	3.797936290006292e-13,-5.438991521083142e-15
	-3.797936353610374e-05,-1.439458936675845e-13
	-3.797936315631011e-05,4.754391178963490e-14
	-1.641639859222171e-23,-1.969287969783025e-13
	-3.797936315631011e-05,4.754391178963490e-14
53		3.388441561392020e+00,0.000000000000000e+00
	-3.797936315631010e-01,4.865135175994773e-10
	1.000000000000000e+00,0.000000000000000e+00
	0.000000000000000e+00,0.000000000000000e+00
	3.797936315631011e-05,-4.865135175994774e-14
	1.719007962209796e-23,2.015158579261764e-13
	3.797936290006292e-13,-5.565681908598798e-15
	-3.797936353610374e-05,-1.472988242576298e-13
	-3.797936315631011e-05,4.865135175994773e-14
	-1.719007962209796e-23,-2.015158579261764e-13
	-3.797936315631011e-05,4.865135175994773e-14
54		3.467368504525310e+00,0.000000000000000e+00
	-3.797936315631010e-01,4.978458732094043e-10
	1.000000000000000e+00,0.000000000000000e+00
	0.000000000000000e+00,0.000000000000000e+00
	3.797936315631011e-05,-4.978458732094043e-14
	1.800022311556678e-23,2.062097652493003e-13
	3.797936290006292e-13,-5.695323294332915e-15
	-3.797936353610374e-05,-1.507298546340269e-13
	-3.797936315631011e-05,4.978458732094043e-14
	-1.800022311556678e-23,-2.062097652493003e-13
	-3.797936315631011e-05,4.978458732094043e-14
55		3.548133892335748e+00,0.000000000000000e+00
	-3.797936315631010e-01,5.094421932910763e-10
	1.000000000000000e+00,0.000000000000000e+00
	0.000000000000000e+00,0.000000000000000e+00
	3.797936315631011e-05,-5.094421932910764e-14
	1.884854749559569e-23,2.110130077194684e-13
	3.797936290006292e-13,-5.827984415864235e-15
	-3.797936353610374e-05,-1.542408039744965e-13
	-3.797936315631011e-05,5.094421932910763e-14
	-1.884854749559569e-23,-2.110130077194684e-13
	-3.797936315631011e-05,5.094421932910763e-14
56		3.630780547701007e+00,0.000000000000000e+00
	-3.797936315631010e-01,5.213086263668958e-10
	1.000000000000000e+00,0.000000000000000e+00
	0.000000000000000e+00,0.000000000000000e+00
	3.797936315631011e-05,-5.213086263668958e-14
	1.973685217193153e-23,2.159281320794167e-13
	3.797936290006292e-13,-5.963735611875313e-15
	-3.797936353610374e-05,-1.578335338308518e-13
	-3.797936315631011e-05,5.213086263668958e-14
	-1.973685217193153e-23,-2.159281320794167e-13
	-3.797936315631011e-05,5.213086263668958e-14
57		3.715352290971718e+00,0.000000000000000e+00
	-3.797936315631010e-01,5.334514641767504e-10
	1.000000000000000e+00,0.000000000000000e+00
	0.000000000000000e+00,0.000000000000000e+00
	3.797936315631011e-05,-5.334514641767505e-14
	2.066702135788991e-23,2.209577443931402e-13
	3.797936290006292e-13,-6.102648859447179e-15
	-3.797936353610374e-05,-1.615099491160179e-13
	-3.797936315631011e-05,5.334514641767504e-14
	-2.066702135788991e-23,-2.209577443931402e-13
	-3.797936315631011e-05,5.334514641767504e-14