Title: * Amplificador CMOS - W=2.979381492728641e-05 L=2.5278599745561983e-07 Vbias=1.4256908800330839
Date: Wed Jul 30 15:50:02 2025
Plotname: Operating Point
Flags: real
No. Variables: 12
No. Points:            1
Offset:    0.0000000000000000e+00
Command: Linear Technology Corporation LTspice
Variables:
	0	V(out)	voltage
	1	V(in)	voltage
	2	V(bias)	voltage
	3	V(vdd)	voltage
	4	Id(M1)	device_current
	5	Ig(M1)	device_current
	6	Ib(M1)	device_current
	7	Is(M1)	device_current
	8	I(Rload)	device_current
	9	I(Vbias)	device_current
	10	I(Vin)	device_current
	11	I(Vdd)	device_current
Values:
0		1.799999978156909e+00
	0.000000000000000e+00
	1.425690880033084e+00
	1.800000000000000e+00
	2.184309076280735e-12
	0.000000000000000e+00
	-3.245690858189993e-12
	1.061381781909259e-12
	-2.184309066954882e-12
	-1.061381781909259e-12
	0.000000000000000e+00
	-2.184309075845339e-12
