Title: * GA CMOS Amp | W=2.543128691465011e-05 L=6.736958474824552e-07 Vbias=0.9020991932119121
Date: Mon Sep  8 18:47:23 2025
Plotname: AC Analysis
Flags: complex forward log
No. Variables: 11
No. Points:          901
Offset:    0.0000000000000000e+00
Command: Linear Technology Corporation LTspice
Variables:
	0	frequency	frequency
	1	V(out)	voltage
	2	V(g)	voltage
	3	V(vdd)	voltage
	4	Id(M1)	device_current
	5	Ig(M1)	device_current
	6	Ib(M1)	device_current
	7	Is(M1)	device_current
	8	I(Rload)	device_current
	9	I(Vg)	device_current
	10	I(Vdd)	device_current
Values:
0		1.000000000000000e+00,0.000000000000000e+00
	-6.690982431335399e+00,1.942656597187141e-09
	1.000000000000000e+00,0.000000000000000e+00
	0.000000000000000e+00,0.000000000000000e+00
	6.690982431335400e-04,-1.942656597187141e-13
	6.208322071552405e-23,3.685904544800740e-13
	6.690982403551038e-12,-3.720249950284346e-15
	-6.690982498245224e-04,-1.706045448110756e-13
	-6.690982431335400e-04,1.942656597187141e-13
	-6.208322071552405e-23,-3.685904544800740e-13
	-6.690982431335400e-04,1.942656597187141e-13
1		1.023292992280754e+00,0.000000000000000e+00
	-6.690982431335399e+00,1.987906882309577e-09
	1.000000000000000e+00,0.000000000000000e+00
	0.000000000000000e+00,0.000000000000000e+00
	6.690982431335400e-04,-1.987906882309577e-13
	6.500911276617022e-23,3.771760290910380e-13
	6.690982403551038e-12,-3.806905703658784e-15
	-6.690982498245224e-04,-1.745784351564215e-13
	-6.690982431335400e-04,1.987906882309577e-13
	-6.500911276617022e-23,-3.771760290910380e-13
	-6.690982431335400e-04,1.987906882309577e-13
2		1.047128548050899e+00,0.000000000000000e+00
	-6.690982431335399e+00,2.034211181974072e-09
	1.000000000000000e+00,0.000000000000000e+00
	0.000000000000000e+00,0.000000000000000e+00
	6.690982431335400e-04,-2.034211181974072e-13
	6.807289786091703e-23,3.859615874251410e-13
	6.690982403551038e-12,-3.895579928827658e-15
	-6.690982498245224e-04,-1.786448892989062e-13
	-6.690982431335400e-04,2.034211181974072e-13
	-6.807289786091703e-23,-3.859615874251410e-13
	-6.690982431335400e-04,2.034211181974072e-13
3		1.071519305237606e+00,0.000000000000000e+00
	-6.690982431335399e+00,2.081594047333217e-09
	1.000000000000000e+00,0.000000000000000e+00
	0.000000000000000e+00,0.000000000000000e+00
	6.690982431335400e-04,-2.081594047333218e-13
	7.128107469871922e-23,3.949517877017024e-13
	6.690982403551038e-12,-3.986319642038875e-15
	-6.690982498245224e-04,-1.828060633263417e-13
	-6.690982431335400e-04,2.081594047333217e-13
	-7.128107469871922e-23,-3.949517877017024e-13
	-6.690982431335400e-04,2.081594047333217e-13
4		1.096478196143185e+00,0.000000000000000e+00
	-6.690982431335399e+00,2.130080601409413e-09
	1.000000000000000e+00,0.000000000000000e+00
	0.000000000000000e+00,0.000000000000000e+00
	6.690982431335400e-04,-2.130080601409413e-13
	7.464044825277753e-23,4.041513966439081e-13
	6.690982403551038e-12,-4.079172954689531e-15
	-6.690982498245224e-04,-1.870641635482773e-13
	-6.690982431335400e-04,2.130080601409413e-13
	-7.464044825277753e-23,-4.041513966439081e-13
	-6.690982431335400e-04,2.130080601409413e-13
5		1.122018454301963e+00,0.000000000000000e+00
	-6.690982431335399e+00,2.179696552415427e-09
	1.000000000000000e+00,0.000000000000000e+00
	0.000000000000000e+00,0.000000000000000e+00
	6.690982431335400e-04,-2.179696552415428e-13
	7.815814420479927e-23,4.135652920061908e-13
	6.690982403551038e-12,-4.174189098835025e-15
	-6.690982498245224e-04,-1.914214476658130e-13
	-6.690982431335400e-04,2.179696552415427e-13
	-7.815814420479927e-23,-4.135652920061908e-13
	-6.690982431335400e-04,2.179696552415427e-13
6		1.148153621496882e+00,0.000000000000000e+00
	-6.690982431335399e+00,2.230468207385226e-09
	1.000000000000000e+00,0.000000000000000e+00
	0.000000000000000e+00,0.000000000000000e+00
	6.690982431335400e-04,-2.230468207385227e-13
	8.184162405952427e-23,4.231984651604788e-13
	6.690982403551038e-12,-4.271418453292528e-15
	-6.690982498245224e-04,-1.958802259686636e-13
	-6.690982431335400e-04,2.230468207385226e-13
	-8.184162405952427e-23,-4.231984651604788e-13
	-6.690982431335400e-04,2.230468207385226e-13
7		1.174897554939529e+00,0.000000000000000e+00
	-6.690982431335399e+00,2.282422486122317e-09
	1.000000000000000e+00,0.000000000000000e+00
	0.000000000000000e+00,0.000000000000000e+00
	6.690982431335400e-04,-2.282422486122318e-13
	8.569870097157719e-23,4.330560237426888e-13
	6.690982403551038e-12,-4.370912570352945e-15
	-6.690982498245224e-04,-2.004428625601040e-13
	-6.690982431335400e-04,2.282422486122317e-13
	-8.569870097157719e-23,-4.330560237426888e-13
	-6.690982431335400e-04,2.282422486122317e-13
8		1.202264434617413e+00,0.000000000000000e+00
	-6.690982431335399e+00,2.335586935472984e-09
	1.000000000000000e+00,0.000000000000000e+00
	0.000000000000000e+00,0.000000000000000e+00
	6.690982431335400e-04,-2.335586935472985e-13
	8.973755631821585e-23,4.431431943608613e-13
	6.690982403551038e-12,-4.472724203114057e-15
	-6.690982498245224e-04,-2.051117766104488e-13
	-6.690982431335400e-04,2.335586935472984e-13
	-8.973755631821585e-23,-4.431431943608613e-13
	-6.690982431335400e-04,2.335586935472984e-13
9		1.230268770812381e+00,0.000000000000000e+00
	-6.690982431335399e+00,2.389989743931987e-09
	1.000000000000000e+00,0.000000000000000e+00
	0.000000000000000e+00,0.000000000000000e+00
	6.690982431335400e-04,-2.389989743931987e-13
	9.396675705312920e-23,4.534653253663775e-13
	6.690982403551038e-12,-4.576907333451100e-15
	-6.690982498245224e-04,-2.098894436397278e-13
	-6.690982431335400e-04,2.389989743931987e-13
	-9.396675705312920e-23,-4.534653253663775e-13
	-6.690982431335400e-04,2.389989743931987e-13
10		1.258925411794167e+00,0.000000000000000e+00
	-6.690982431335399e+00,2.445659756588476e-09
	1.000000000000000e+00,0.000000000000000e+00
	0.000000000000000e+00,0.000000000000000e+00
	6.690982431335400e-04,-2.445659756588476e-13
	9.839527387809478e-23,4.640278896897262e-13
	6.690982403551038e-12,-4.683517200638911e-15
	-6.690982498245224e-04,-2.147783968302397e-13
	-6.690982431335400e-04,2.445659756588476e-13
	-9.839527387809478e-23,-4.640278896897262e-13
	-6.690982431335400e-04,2.445659756588476e-13
11		1.288249551693134e+00,0.000000000000000e+00
	-6.690982431335399e+00,2.502626490420043e-09
	1.000000000000000e+00,0.000000000000000e+00
	0.000000000000000e+00,0.000000000000000e+00
	6.690982431335400e-04,-2.502626490420043e-13
	1.030325002710400e-22,4.748364877423237e-13
	6.690982403551038e-12,-4.792610330640201e-15
	-6.690982498245224e-04,-2.197812283696793e-13
	-6.690982431335400e-04,2.502626490420043e-13
	-1.030325002710400e-22,-4.748364877423237e-13
	-6.690982431335400e-04,2.502626490420043e-13
12		1.318256738556407e+00,0.000000000000000e+00
	-6.690982431335399e+00,2.560920149943007e-09
	1.000000000000000e+00,0.000000000000000e+00
	0.000000000000000e+00,0.000000000000000e+00
	6.690982431335400e-04,-2.560920149943008e-13
	1.078882724108680e-22,4.858968503859261e-13
	6.690982403551038e-12,-4.904244566076415e-15
	-6.690982498245224e-04,-2.249005908255489e-13
	-6.690982431335400e-04,2.560920149943007e-13
	-1.078882724108680e-22,-4.858968503859261e-13
	-6.690982431335400e-04,2.560920149943007e-13
13		1.348962882591653e+00,0.000000000000000e+00
	-6.690982431335399e+00,2.620571643227258e-09
	1.000000000000000e+00,0.000000000000000e+00
	0.000000000000000e+00,0.000000000000000e+00
	6.690982431335400e-04,-2.620571643227258e-13
	1.129728900413122e-22,4.972148419712082e-13
	6.690982403551038e-12,-5.018479096897025e-15
	-6.690982498245224e-04,-2.301391985515854e-13
	-6.690982431335400e-04,2.620571643227258e-13
	-1.129728900413122e-22,-4.972148419712082e-13
	-6.690982431335400e-04,2.620571643227258e-13
14		1.380384264602885e+00,0.000000000000000e+00
	-6.690982431335399e+00,2.681612598284114e-09
	1.000000000000000e+00,0.000000000000000e+00
	0.000000000000000e+00,0.000000000000000e+00
	6.690982431335400e-04,-2.681612598284114e-13
	1.182971383180732e-22,5.087964634471200e-13
	6.690982403551038e-12,-5.135374491762109e-15
	-6.690982498245224e-04,-2.354998291269465e-13
	-6.690982431335400e-04,2.681612598284114e-13
	-1.182971383180732e-22,-5.087964634471200e-13
	-6.690982431335400e-04,2.681612598284114e-13
15		1.412537544622754e+00,0.000000000000000e+00
	-6.690982431335399e+00,2.744075379835918e-09
	1.000000000000000e+00,0.000000000000000e+00
	0.000000000000000e+00,0.000000000000000e+00
	6.690982431335400e-04,-2.744075379835919e-13
	1.238723106855804e-22,5.206478555426687e-13
	6.690982403551038e-12,-5.254992730157499e-15
	-6.690982498245224e-04,-2.409853248289193e-13
	-6.690982431335400e-04,2.744075379835919e-13
	-1.238723106855804e-22,-5.206478555426687e-13
	-6.690982431335400e-04,2.744075379835919e-13
16		1.445439770745927e+00,0.000000000000000e+00
	-6.690982431335399e+00,2.807993106476243e-09
	1.000000000000000e+00,0.000000000000000e+00
	0.000000000000000e+00,0.000000000000000e+00
	6.690982431335400e-04,-2.807993106476244e-13
	1.297102328319017e-22,5.327753020228152e-13
	6.690982403551038e-12,-5.377397235256529e-15
	-6.690982498245224e-04,-2.465985941399343e-13
	-6.690982431335400e-04,2.807993106476243e-13
	-1.297102328319017e-22,-5.327753020228152e-13
	-6.690982431335400e-04,2.807993106476243e-13
17		1.479108388168207e+00,0.000000000000000e+00
	-6.690982431335399e+00,2.873399668229805e-09
	1.000000000000000e+00,0.000000000000000e+00
	0.000000000000000e+00,0.000000000000000e+00
	6.690982431335400e-04,-2.873399668229805e-13
	1.358232877726133e-22,5.451852330202090e-13
	6.690982403551038e-12,-5.502652907547973e-15
	-6.690982498245224e-04,-2.523426132896806e-13
	-6.690982431335400e-04,2.873399668229805e-13
	-1.358232877726133e-22,-5.451852330202090e-13
	-6.690982431335400e-04,2.873399668229805e-13
18		1.513561248436208e+00,0.000000000000000e+00
	-6.690982431335399e+00,2.940329744521404e-09
	1.000000000000000e+00,0.000000000000000e+00
	0.000000000000000e+00,0.000000000000000e+00
	6.690982431335400e-04,-2.940329744521404e-13
	1.422244421168361e-22,5.578842284445300e-13
	6.690982403551038e-12,-5.630826159247098e-15
	-6.690982498245224e-04,-2.582204278331425e-13
	-6.690982431335400e-04,2.940329744521404e-13
	-1.422244421168361e-22,-5.578842284445300e-13
	-6.690982431335400e-04,2.940329744521404e-13
19		1.548816618912481e+00,0.000000000000000e+00
	-6.690982431335399e+00,3.008818822563412e-09
	1.000000000000000e+00,0.000000000000000e+00
	0.000000000000000e+00,0.000000000000000e+00
	6.690982431335400e-04,-3.008818822563413e-13
	1.489272735711517e-22,5.708790214712428e-13
	6.690982403551038e-12,-5.761984949508643e-15
	-6.690982498245224e-04,-2.642351542653929e-13
	-6.690982431335400e-04,3.008818822563413e-13
	-1.489272735711517e-22,-5.708790214712428e-13
	-6.690982431335400e-04,3.008818822563413e-13
20		1.584893192461113e+00,0.000000000000000e+00
	-6.690982431335399e+00,3.078903216171570e-09
	1.000000000000000e+00,0.000000000000000e+00
	0.000000000000000e+00,0.000000000000000e+00
	6.690982431335400e-04,-3.078903216171570e-13
	1.559459997397392e-22,5.841765021116170e-13
	6.690982403551038e-12,-5.896198820459412e-15
	-6.690982498245224e-04,-2.703899816740006e-13
	-6.690982431335400e-04,3.078903216171570e-13
	-1.559459997397392e-22,-5.841765021116170e-13
	-6.690982431335400e-04,3.078903216171570e-13
21		1.621810097358929e+00,0.000000000000000e+00
	-6.690982431335399e+00,3.150620085019043e-09
	1.000000000000000e+00,0.000000000000000e+00
	0.000000000000000e+00,0.000000000000000e+00
	6.690982431335400e-04,-3.150620085019043e-13
	1.632955082818191e-22,5.977837208659008e-13
	6.690982403551038e-12,-6.033538934070212e-15
	-6.690982498245224e-04,-2.766881734299262e-13
	-6.690982431335400e-04,3.150620085019043e-13
	-1.632955082818191e-22,-5.977837208659008e-13
	-6.690982431335400e-04,3.150620085019043e-13
22		1.659586907437560e+00,0.000000000000000e+00
	-6.690982431335399e+00,3.224007454338980e-09
	1.000000000000000e+00,0.000000000000000e+00
	0.000000000000000e+00,0.000000000000000e+00
	6.690982431335400e-04,-3.224007454338981e-13
	1.709913884903749e-22,6.117078924615907e-13
	6.690982403551038e-12,-6.174078109887035e-15
	-6.690982498245224e-04,-2.831330689178055e-13
	-6.690982431335400e-04,3.224007454338980e-13
	-1.709913884903749e-22,-6.117078924615907e-13
	-6.690982431335400e-04,3.224007454338980e-13
23		1.698243652461743e+00,0.000000000000000e+00
	-6.690982431335399e+00,3.299104235085992e-09
	1.000000000000000e+00,0.000000000000000e+00
	0.000000000000000e+00,0.000000000000000e+00
	6.690982431335400e-04,-3.299104235085993e-13
	1.790499643591335e-22,6.259563996787749e-13
	6.690982403551038e-12,-6.317890863641416e-15
	-6.690982498245224e-04,-2.897280853065342e-13
	-6.690982431335400e-04,3.299104235085993e-13
	-1.790499643591335e-22,-6.259563996787749e-13
	-6.690982431335400e-04,3.299104235085993e-13
24		1.737800828749374e+00,0.000000000000000e+00
	-6.690982431335399e+00,3.375950244567253e-09
	1.000000000000000e+00,0.000000000000000e+00
	0.000000000000000e+00,0.000000000000000e+00
	6.690982431335400e-04,-3.375950244567253e-13
	1.874883292079447e-22,6.405367972645812e-13
	6.690982403551038e-12,-6.465053446758964e-15
	-6.690982498245224e-04,-2.964767193610969e-13
	-6.690982431335400e-04,3.375950244567253e-13
	-1.874883292079447e-22,-6.405367972645812e-13
	-6.690982431335400e-04,3.375950244567253e-13
25		1.778279410038922e+00,0.000000000000000e+00
	-6.690982431335399e+00,3.454586227554168e-09
	1.000000000000000e+00,0.000000000000000e+00
	0.000000000000000e+00,0.000000000000000e+00
	6.690982431335400e-04,-3.454586227554168e-13
	1.963243819400042e-22,6.554568159388040e-13
	6.690982403551038e-12,-6.615643886788921e-15
	-6.690982498245224e-04,-3.033825492965982e-13
	-6.690982431335400e-04,3.454586227554168e-13
	-1.963243819400042e-22,-6.554568159388040e-13
	-6.690982431335400e-04,3.454586227554168e-13
26		1.819700858609982e+00,0.000000000000000e+00
	-6.690982431335399e+00,3.535053877885786e-09
	1.000000000000000e+00,0.000000000000000e+00
	0.000000000000000e+00,0.000000000000000e+00
	6.690982431335400e-04,-3.535053877885786e-13
	2.055768650078268e-22,6.707243664928341e-13
	6.690982403551038e-12,-6.769742028776120e-15
	-6.690982498245224e-04,-3.104492366754794e-13
	-6.690982431335400e-04,3.535053877885786e-13
	-2.055768650078268e-22,-6.707243664928341e-13
	-6.690982431335400e-04,3.535053877885786e-13
27		1.862087136662866e+00,0.000000000000000e+00
	-6.690982431335399e+00,3.617395860575430e-09
	1.000000000000000e+00,0.000000000000000e+00
	0.000000000000000e+00,0.000000000000000e+00
	6.690982431335400e-04,-3.617395860575430e-13
	2.152654041685015e-22,6.863475439840655e-13
	6.690982403551038e-12,-6.927429577595124e-15
	-6.690982498245224e-04,-3.176805283489274e-13
	-6.690982431335400e-04,3.617395860575430e-13
	-2.152654041685015e-22,-6.863475439840655e-13
	-6.690982431335400e-04,3.617395860575430e-13
28		1.905460717963246e+00,0.000000000000000e+00
	-6.690982431335399e+00,3.701655834432244e-09
	1.000000000000000e+00,0.000000000000000e+00
	0.000000000000000e+00,0.000000000000000e+00
	6.690982431335400e-04,-3.701655834432245e-13
	2.254105501125529e-22,7.023346320280008e-13
	6.690982403551038e-12,-7.088790141271484e-15
	-6.690982498245224e-04,-3.250802584435048e-13
	-6.690982431335400e-04,3.701655834432245e-13
	-2.254105501125529e-22,-7.023346320280008e-13
	-6.690982431335400e-04,3.701655834432245e-13
29		1.949844599758044e+00,0.000000000000000e+00
	-6.690982431335399e+00,3.787878475209684e-09
	1.000000000000000e+00,0.000000000000000e+00
	0.000000000000000e+00,0.000000000000000e+00
	6.690982431335400e-04,-3.787878475209685e-13
	2.360338220547121e-22,7.186941071903354e-13
	6.690982403551038e-12,-7.253909275311993e-15
	-6.690982498245224e-04,-3.326523503940549e-13
	-6.690982431335400e-04,3.787878475209684e-13
	-2.360338220547121e-22,-7.186941071903354e-13
	-6.690982431335400e-04,3.787878475209684e-13
30		1.995262314968878e+00,0.000000000000000e+00
	-6.690982431335399e+00,3.876109499293176e-09
	1.000000000000000e+00,0.000000000000000e+00
	0.000000000000000e+00,0.000000000000000e+00
	6.690982431335400e-04,-3.876109499293178e-13
	2.471577533790550e-22,7.354346434813433e-13
	6.690982403551038e-12,-7.422874528067234e-15
	-6.690982498245224e-04,-3.404008190239583e-13
	-6.690982431335400e-04,3.876109499293177e-13
	-2.471577533790550e-22,-7.354346434813433e-13
	-6.690982431335400e-04,3.876109499293177e-13
31		2.041737944669527e+00,0.000000000000000e+00
	-6.690982431335399e+00,3.966395687939570e-09
	1.000000000000000e+00,0.000000000000000e+00
	0.000000000000000e+00,0.000000000000000e+00
	6.690982431335400e-04,-3.966395687939571e-13
	2.588059394353321e-22,7.525651169549532e-13
	6.690982403551038e-12,-7.595775487150435e-15
	-6.690982498245224e-04,-3.483297726738457e-13
	-6.690982431335400e-04,3.966395687939571e-13
	-2.588059394353321e-22,-7.525651169549532e-13
	-6.690982431335400e-04,3.966395687939571e-13
32		2.089296130854037e+00,0.000000000000000e+00
	-6.690982431335399e+00,4.058784912081164e-09
	1.000000000000000e+00,0.000000000000000e+00
	0.000000000000000e+00,0.000000000000000e+00
	6.690982431335400e-04,-4.058784912081164e-13
	2.710030875878684e-22,7.700946104149498e-13
	6.690982403551038e-12,-7.772703826939007e-15
	-6.690982498245224e-04,-3.564434153798945e-13
	-6.690982431335400e-04,4.058784912081165e-13
	-2.710030875878684e-22,-7.700946104149498e-13
	-6.690982431335400e-04,4.058784912081165e-13
33		2.137962089502230e+00,0.000000000000000e+00
	-6.690982431335399e+00,4.153326157707511e-09
	1.000000000000000e+00,0.000000000000000e+00
	0.000000000000000e+00,0.000000000000000e+00
	6.690982431335400e-04,-4.153326157707512e-13
	2.837750696231954e-22,7.880324182307955e-13
	6.690982403551038e-12,-7.953753357180447e-15
	-6.690982498245224e-04,-3.647460491028639e-13
	-6.690982431335400e-04,4.153326157707511e-13
	-2.837750696231954e-22,-7.880324182307955e-13
	-6.690982431335400e-04,4.153326157707511e-13
34		2.187761623949550e+00,0.000000000000000e+00
	-6.690982431335399e+00,4.250069551838446e-09
	1.000000000000000e+00,0.000000000000000e+00
	0.000000000000000e+00,0.000000000000000e+00
	6.690982431335400e-04,-4.250069551838448e-13
	2.971489766275795e-22,8.063880512656295e-13
	6.690982403551038e-12,-8.139020072732222e-15
	-6.690982498245224e-04,-3.732420760090525e-13
	-6.690982431335400e-04,4.250069551838446e-13
	-2.971489766275795e-22,-8.063880512656295e-13
	-6.690982431335400e-04,4.250069551838446e-13
35		2.238721138568337e+00,0.000000000000000e+00
	-6.690982431335399e+00,4.349066389102088e-09
	1.000000000000000e+00,0.000000000000000e+00
	0.000000000000000e+00,0.000000000000000e+00
	6.690982431335400e-04,-4.349066389102087e-13
	3.111531764508480e-22,8.251712419190521e-13
	6.690982403551038e-12,-8.328602204459330e-15
	-6.690982498245224e-04,-3.819360008043840e-13
	-6.690982431335400e-04,4.349066389102088e-13
	-3.111531764508480e-22,-8.251712419190521e-13
	-6.690982431335400e-04,4.349066389102088e-13
36		2.290867652767770e+00,0.000000000000000e+00
	-6.690982431335399e+00,4.450369158931930e-09
	1.000000000000000e+00,0.000000000000000e+00
	0.000000000000000e+00,0.000000000000000e+00
	6.690982431335400e-04,-4.450369158931929e-13
	3.258173738784018e-22,8.443919492873729e-13
	6.690982403551038e-12,-8.522600271317295e-15
	-6.690982498245224e-04,-3.908324331228627e-13
	-6.690982431335400e-04,4.450369158931930e-13
	-3.258173738784018e-22,-8.443919492873729e-13
	-6.690982431335400e-04,4.450369158931930e-13
37		2.344228815319919e+00,0.000000000000000e+00
	-6.690982431335399e+00,4.554031573397437e-09
	1.000000000000000e+00,0.000000000000000e+00
	0.000000000000000e+00,0.000000000000000e+00
	6.690982431335400e-04,-4.554031573397437e-13
	3.411726736390479e-22,8.640603644440546e-13
	6.690982403551038e-12,-8.721117133649124e-15
	-6.690982498245224e-04,-3.999360899706618e-13
	-6.690982431335400e-04,4.554031573397438e-13
	-3.411726736390479e-22,-8.640603644440546e-13
	-6.690982431335400e-04,4.554031573397438e-13
38		2.398832919019488e+00,0.000000000000000e+00
	-6.690982431335399e+00,4.660108595682894e-09
	1.000000000000000e+00,0.000000000000000e+00
	0.000000000000000e+00,0.000000000000000e+00
	6.690982431335400e-04,-4.660108595682895e-13
	3.572516463822996e-22,8.841869158431556e-13
	6.690982403551038e-12,-8.924258047722631e-15
	-6.690982498245224e-04,-4.092517982271435e-13
	-6.690982431335400e-04,4.660108595682894e-13
	-3.572516463822996e-22,-8.841869158431556e-13
	-6.690982431335400e-04,4.660108595682894e-13
39		2.454708915685027e+00,0.000000000000000e+00
	-6.690982431335399e+00,4.768656469229612e-09
	1.000000000000000e+00,0.000000000000000e+00
	0.000000000000000e+00,0.000000000000000e+00
	6.690982431335400e-04,-4.768656469229613e-13
	3.740883977650908e-22,9.047822748486340e-13
	6.690982403551038e-12,-9.132130721539733e-15
	-6.690982498245224e-04,-4.187844972041330e-13
	-6.690982431335400e-04,4.768656469229612e-13
	-3.740883977650908e-22,-9.047822748486340e-13
	-6.690982431335400e-04,4.768656469229612e-13
40		2.511886431509577e+00,0.000000000000000e+00
	-6.690982431335399e+00,4.879732747556944e-09
	1.000000000000000e+00,0.000000000000000e+00
	0.000000000000000e+00,0.000000000000000e+00
	6.690982431335400e-04,-4.879732747556945e-13
	3.917186407944468e-22,9.258573613924463e-13
	6.690982403551038e-12,-9.344845371943467e-15
	-6.690982498245224e-04,-4.285392412648083e-13
	-6.690982431335400e-04,4.879732747556944e-13
	-3.917186407944468e-22,-9.258573613924463e-13
	-6.690982431335400e-04,4.879732747556944e-13
41		2.570395782768860e+00,0.000000000000000e+00
	-6.690982431335399e+00,4.993396324777931e-09
	1.000000000000000e+00,0.000000000000000e+00
	0.000000000000000e+00,0.000000000000000e+00
	6.690982431335400e-04,-4.993396324777932e-13
	4.101797715795608e-22,9.474233497644397e-13
	6.690982403551038e-12,-9.562514783056808e-15
	-6.690982498245224e-04,-4.385212025035897e-13
	-6.690982431335400e-04,4.993396324777931e-13
	-4.101797715795608e-22,-9.474233497644397e-13
	-6.690982431335400e-04,4.993396324777931e-13
42		2.630267991895378e+00,0.000000000000000e+00
	-6.690982431335399e+00,5.109707466825729e-09
	1.000000000000000e+00,0.000000000000000e+00
	0.000000000000000e+00,0.000000000000000e+00
	6.690982431335400e-04,-5.109707466825731e-13
	4.295109486539551e-22,9.694916745371091e-13
	6.690982403551038e-12,-9.785254366083220e-15
	-6.690982498245224e-04,-4.487356734884528e-13
	-6.690982431335400e-04,5.109707466825729e-13
	-4.295109486539551e-22,-9.694916745371091e-13
	-6.690982431335400e-04,5.109707466825729e-13
43		2.691534803926912e+00,0.000000000000000e+00
	-6.690982431335399e+00,5.228727843407414e-09
	1.000000000000000e+00,0.000000000000000e+00
	0.000000000000000e+00,0.000000000000000e+00
	6.690982431335400e-04,-5.228727843407414e-13
	4.497531760359806e-22,9.920740366283574e-13
	6.690982403551038e-12,-1.001318222049752e-14
	-6.690982498245224e-04,-4.591880700671184e-13
	-6.690982431335400e-04,5.228727843407414e-13
	-4.497531760359806e-22,-9.920740366283574e-13
	-6.690982431335400e-04,5.228727843407414e-13
44		2.754228703338163e+00,0.000000000000000e+00
	-6.690982431335399e+00,5.350520560702067e-09
	1.000000000000000e+00,0.000000000000000e+00
	0.000000000000000e+00,0.000000000000000e+00
	6.690982431335400e-04,-5.350520560702067e-13
	4.709493902038370e-22,1.015182409505478e-12
	6.690982403551038e-12,-1.024641919666545e-14
	-6.690982498245224e-04,-4.698839342386061e-13
	-6.690982431335400e-04,5.350520560702067e-13
	-4.709493902038370e-22,-1.015182409505478e-12
	-6.690982431335400e-04,5.350520560702067e-13
45		2.818382931264450e+00,0.000000000000000e+00
	-6.690982431335399e+00,5.475150194820516e-09
	1.000000000000000e+00,0.000000000000000e+00
	0.000000000000000e+00,0.000000000000000e+00
	6.690982431335400e-04,-5.475150194820517e-13
	4.931445511696004e-22,1.038829045533647e-12
	6.690982403551038e-12,-1.048508895991883e-14
	-6.690982498245224e-04,-4.808289370916764e-13
	-6.690982431335400e-04,5.475150194820516e-13
	-4.931445511696004e-22,-1.038829045533647e-12
	-6.690982431335400e-04,5.475150194820516e-13
46		2.884031503126602e+00,0.000000000000000e+00
	-6.690982431335399e+00,5.602682826044438e-09
	1.000000000000000e+00,0.000000000000000e+00
	0.000000000000000e+00,0.000000000000000e+00
	6.690982431335400e-04,-5.602682826044439e-13
	5.163857378454359e-22,1.063026482472285e-12
	6.690982403551038e-12,-1.072931805612502e-14
	-6.690982498245224e-04,-4.920288818117160e-13
	-6.690982431335400e-04,5.602682826044438e-13
	-5.163857378454359e-22,-1.063026482472285e-12
	-6.690982431335400e-04,5.602682826044438e-13
47		2.951209226666381e+00,0.000000000000000e+00
	-6.690982431335399e+00,5.733186073863005e-09
	1.000000000000000e+00,0.000000000000000e+00
	0.000000000000000e+00,0.000000000000000e+00
	6.690982431335400e-04,-5.733186073863006e-13
	5.407222479042837e-22,1.087787550122749e-12
	6.690982403551038e-12,-1.097923597878424e-14
	-6.690982498245224e-04,-5.034897067576644e-13
	-6.690982431335400e-04,5.733186073863005e-13
	-5.407222479042837e-22,-1.087787550122749e-12
	-6.690982431335400e-04,5.733186073863005e-13
48		3.019951720402012e+00,0.000000000000000e+00
	-6.690982431335399e+00,5.866729132825624e-09
	1.000000000000000e+00,0.000000000000000e+00
	0.000000000000000e+00,0.000000000000000e+00
	6.690982431335400e-04,-5.866729132825625e-13
	5.662057023468313e-22,1.113125377130859e-12
	6.690982403551038e-12,-1.123497523768648e-14
	-6.690982498245224e-04,-5.152174886106098e-13
	-6.690982431335400e-04,5.866729132825624e-13
	-5.662057023468313e-22,-1.113125377130859e-12
	-6.690982431335400e-04,5.866729132825624e-13
49		3.090295432513586e+00,0.000000000000000e+00
	-6.690982431335399e+00,6.003382809229805e-09
	1.000000000000000e+00,0.000000000000000e+00
	0.000000000000000e+00,0.000000000000000e+00
	6.690982431335400e-04,-6.003382809229807e-13
	5.928901549965771e-22,1.139053397947879e-12
	6.690982403551038e-12,-1.149667142917257e-14
	-6.690982498245224e-04,-5.272184455957262e-13
	-6.690982431335400e-04,6.003382809229805e-13
	-5.928901549965771e-22,-1.139053397947879e-12
	-6.690982431335400e-04,6.003382809229805e-13
50		3.162277660168374e+00,0.000000000000000e+00
	-6.690982431335399e+00,6.143219558663607e-09
	1.000000000000000e+00,0.000000000000000e+00
	0.000000000000000e+00,0.000000000000000e+00
	6.690982431335400e-04,-6.143219558663609e-13
	6.208322071552386e-22,1.165585359953646e-12
	6.690982403551038e-12,-1.176446330802671e-14
	-6.690982498245224e-04,-5.394989407792587e-13
	-6.690982431335400e-04,6.143219558663607e-13
	-6.208322071552386e-22,-1.165585359953646e-12
	-6.690982431335400e-04,6.143219558663607e-13
51		3.235936569296277e+00,0.000000000000000e+00
	-6.690982431335399e+00,6.286313524422536e-09
	1.000000000000000e+00,0.000000000000000e+00
	0.000000000000000e+00,0.000000000000000e+00
	6.690982431335400e-04,-6.286313524422537e-13
	6.500911276617002e-22,1.192735330745606e-12
	6.690982403551038e-12,-1.203849286104777e-14
	-6.690982498245224e-04,-5.520654854423049e-13
	-6.690982431335400e-04,6.286313524422537e-13
	-6.500911276617002e-22,-1.192735330745606e-12
	-6.690982431335400e-04,6.286313524422537e-13
52		3.311311214825905e+00,0.000000000000000e+00
	-6.690982431335399e+00,6.432740576821311e-09
	1.000000000000000e+00,0.000000000000000e+00
	0.000000000000000e+00,0.000000000000000e+00
	6.690982431335400e-04,-6.432740576821312e-13
	6.807289786091681e-22,1.220517705597647e-12
	6.690982403551038e-12,-1.231890538233203e-14
	-6.690982498245224e-04,-5.649247425331833e-13
	-6.690982431335400e-04,6.432740576821311e-13
	-6.807289786091681e-22,-1.220517705597647e-12
	-6.690982431335400e-04,6.432740576821311e-13
53		3.388441561392020e+00,0.000000000000000e+00
	-6.690982431335399e+00,6.582578353421304e-09
	1.000000000000000e+00,0.000000000000000e+00
	0.000000000000000e+00,0.000000000000000e+00
	6.690982431335400e-04,-6.582578353421305e-13
	7.128107469871900e-22,1.248947215092656e-12
	6.690982403551038e-12,-1.260584955030992e-14
	-6.690982498245224e-04,-5.780835302002157e-13
	-6.690982431335400e-04,6.582578353421305e-13
	-7.128107469871900e-22,-1.248947215092656e-12
	-6.690982431335400e-04,6.582578353421305e-13
54		3.467368504525310e+00,0.000000000000000e+00
	-6.690982431335399e+00,6.735906300195004e-09
	1.000000000000000e+00,0.000000000000000e+00
	0.000000000000000e+00,0.000000000000000e+00
	6.690982431335400e-04,-6.735906300195005e-13
	7.464044825277732e-22,1.278038932932878e-12
	6.690982403551038e-12,-1.289947750657756e-14
	-6.690982498245224e-04,-5.915488254068004e-13
	-6.690982431335400e-04,6.735906300195005e-13
	-7.464044825277732e-22,-1.278038932932878e-12
	-6.690982431335400e-04,6.735906300195005e-13
55		3.548133892335748e+00,0.000000000000000e+00
	-6.690982431335399e+00,6.892805713649329e-09
	1.000000000000000e+00,0.000000000000000e+00
	0.000000000000000e+00,0.000000000000000e+00
	6.690982431335400e-04,-6.892805713649330e-13
	7.815814420479901e-22,1.307808283932188e-12
	6.690982403551038e-12,-1.319994493656439e-14
	-6.690982498245224e-04,-6.053277676306902e-13
	-6.690982431335400e-04,6.892805713649329e-13
	-7.815814420479901e-22,-1.307808283932188e-12
	-6.690982431335400e-04,6.892805713649329e-13
56		3.630780547701007e+00,0.000000000000000e+00
	-6.690982431335399e+00,7.053359783930101e-09
	1.000000000000000e+00,0.000000000000000e+00
	0.000000000000000e+00,0.000000000000000e+00
	6.690982431335400e-04,-7.053359783930101e-13
	8.184162405952401e-22,1.338271052194526e-12
	6.690982403551038e-12,-1.350741115207822e-14
	-6.690982498245224e-04,-6.194276626494380e-13
	-6.690982431335400e-04,7.053359783930102e-13
	-8.184162405952401e-22,-1.338271052194526e-12
	-6.690982431335400e-04,7.053359783930102e-13
57		3.715352290971718e+00,0.000000000000000e+00
	-6.690982431335399e+00,7.217653638930565e-09
	1.000000000000000e+00,0.000000000000000e+00
	0.000000000000000e+00,0.000000000000000e+00
	6.690982431335400e-04,-7.217653638930567e-13
	8.569870097157691e-22,1.369443389482850e-12
	6.690982403551038e-12,-1.382203917577644e-14
	-6.690982498245224e-04,-6.338559864140168e-13
	-6.690982431335400e-04,7.217653638930566e-13
	-8.569870097157691e-22,-1.369443389482850e-12
	-6.690982431335400e-04,7.217653638930566e-13