Title: * GA CMOS Amp | W=2.5795991436598112e-05 L=9.655901161522955e-07 Vbias=1.1148298950998692
Date: Mon Sep  8 18:47:19 2025
Plotname: AC Analysis
Flags: complex forward log
No. Variables: 11
No. Points:          901
Offset:    0.0000000000000000e+00
Command: Linear Technology Corporation LTspice
Variables:
	0	frequency	frequency
	1	V(out)	voltage
	2	V(g)	voltage
	3	V(vdd)	voltage
	4	Id(M1)	device_current
	5	Ig(M1)	device_current
	6	Ib(M1)	device_current
	7	Is(M1)	device_current
	8	I(Rload)	device_current
	9	I(Vg)	device_current
	10	I(Vdd)	device_current
Values:
0		1.000000000000000e+00,0.000000000000000e+00
	-1.186875935296959e+00,7.243033211514603e-10
	1.000000000000000e+00,0.000000000000000e+00
	0.000000000000000e+00,0.000000000000000e+00
	1.186875935296959e-04,-7.243033211514607e-14
	9.620831727093119e-23,4.366787872892490e-13
	1.187259492108073e-12,9.635548740505641e-15
	-1.186875947169554e-04,-3.738840039146086e-13
	-1.186875935296959e-04,7.243033211514603e-14
	-9.620831727093119e-23,-4.366787872892490e-13
	-1.186875935296959e-04,7.243033211514603e-14
1		1.023292992280754e+00,0.000000000000000e+00
	-1.186875935296959e+00,7.411745128199659e-10
	1.000000000000000e+00,0.000000000000000e+00
	0.000000000000000e+00,0.000000000000000e+00
	1.186875935296959e-04,-7.411745128199665e-14
	1.007424755743305e-22,4.468503429107465e-13
	1.187259492108073e-12,9.859989502939157e-15
	-1.186875947169554e-04,-3.825928811316890e-13
	-1.186875935296959e-04,7.411745128199660e-14
	-1.007424755743305e-22,-4.468503429107465e-13
	-1.186875935296959e-04,7.411745128199660e-14
2		1.047128548050899e+00,0.000000000000000e+00
	-1.186875935296959e+00,7.584386850257730e-10
	1.000000000000000e+00,0.000000000000000e+00
	0.000000000000000e+00,0.000000000000000e+00
	1.186875935296959e-04,-7.584386850257734e-14
	1.054903221752019e-22,4.572588244988188e-13
	1.187259492108073e-12,1.008965816231946e-14
	-1.186875947169554e-04,-3.915046141585609e-13
	-1.186875935296959e-04,7.584386850257731e-14
	-1.054903221752019e-22,-4.572588244988188e-13
	-1.186875935296959e-04,7.584386850257731e-14
3		1.071519305237606e+00,0.000000000000000e+00
	-1.186875935296959e+00,7.761049914615036e-10
	1.000000000000000e+00,0.000000000000000e+00
	0.000000000000000e+00,0.000000000000000e+00
	1.186875935296959e-04,-7.761049914615038e-14
	1.104619278927407e-22,4.679097507681765e-13
	1.187259492108073e-12,1.032467649200974e-14
	-1.186875947169554e-04,-4.006239281140358e-13
	-1.186875935296959e-04,7.761049914615037e-14
	-1.104619278927407e-22,-4.679097507681765e-13
	-1.186875935296959e-04,7.761049914615037e-14
4		1.096478196143185e+00,0.000000000000000e+00
	-1.186875935296959e+00,7.941827990366709e-10
	1.000000000000000e+00,0.000000000000000e+00
	0.000000000000000e+00,0.000000000000000e+00
	1.186875935296959e-04,-7.941827990366712e-14
	1.156678381692287e-22,4.788087689809091e-13
	1.187259492108073e-12,1.056516910183950e-14
	-1.186875947169554e-04,-4.099556581790814e-13
	-1.186875935296959e-04,7.941827990366709e-14
	-1.156678381692287e-22,-4.788087689809091e-13
	-1.186875935296959e-04,7.941827990366709e-14
5		1.122018454301963e+00,0.000000000000000e+00
	-1.186875935296959e+00,8.126816928441400e-10
	1.000000000000000e+00,0.000000000000000e+00
	0.000000000000000e+00,0.000000000000000e+00
	1.186875935296959e-04,-8.126816928441398e-14
	1.211190954383309e-22,4.899616579407389e-13
	1.187259492108073e-12,1.081126350417339e-14
	-1.186875947169554e-04,-4.195047521604983e-13
	-1.186875935296959e-04,8.126816928441400e-14
	-1.211190954383309e-22,-4.899616579407389e-13
	-1.186875935296959e-04,8.126816928441400e-14
6		1.148153621496882e+00,0.000000000000000e+00
	-1.186875935296959e+00,8.316114812422687e-10
	1.000000000000000e+00,0.000000000000000e+00
	0.000000000000000e+00,0.000000000000000e+00
	1.186875935296959e-04,-8.316114812422693e-14
	1.268272625475777e-22,5.013743310570180e-13
	1.187259492108073e-12,1.106309018152130e-14
	-1.186875947169554e-04,-4.292762731143124e-13
	-1.186875935296959e-04,8.316114812422688e-14
	-1.268272625475777e-22,-5.013743310570180e-13
	-1.186875935296959e-04,8.316114812422688e-14
7		1.174897554939529e+00,0.000000000000000e+00
	-1.186875935296959e+00,8.509822010554311e-10
	1.000000000000000e+00,0.000000000000000e+00
	0.000000000000000e+00,0.000000000000000e+00
	1.186875935296959e-04,-8.509822010554328e-14
	1.328044472847152e-22,5.130528394800974e-13
	1.187259492108073e-12,1.132078265572084e-14
	-1.186875947169554e-04,-4.392754020302749e-13
	-1.186875935296959e-04,8.509822010554312e-14
	-1.328044472847152e-22,-5.130528394800974e-13
	-1.186875935296959e-04,8.509822010554312e-14
8		1.202264434617413e+00,0.000000000000000e+00
	-1.186875935296959e+00,8.708041228956745e-10
	1.000000000000000e+00,0.000000000000000e+00
	0.000000000000000e+00,0.000000000000000e+00
	1.186875935296959e-04,-8.708041228956761e-14
	1.390633280599461e-22,5.250033753097262e-13
	1.187259492108073e-12,1.158447755873267e-14
	-1.186875947169554e-04,-4.495074405788913e-13
	-1.186875935296959e-04,8.708041228956746e-14
	-1.390633280599461e-22,-5.250033753097262e-13
	-1.186875935296959e-04,8.708041228956746e-14
9		1.230268770812381e+00,0.000000000000000e+00
	-1.186875935296959e+00,8.910877566083324e-10
	1.000000000000000e+00,0.000000000000000e+00
	0.000000000000000e+00,0.000000000000000e+00
	1.186875935296959e-04,-8.910877566083326e-14
	1.456171807985373e-22,5.372322748781856e-13
	1.187259492108073e-12,1.185431470508470e-14
	-1.186875947169554e-04,-4.599778139224370e-13
	-1.186875935296959e-04,8.910877566083325e-14
	-1.456171807985373e-22,-5.372322748781856e-13
	-1.186875935296959e-04,8.910877566083325e-14
10		1.258925411794167e+00,0.000000000000000e+00
	-1.186875935296959e+00,9.118438568444849e-10
	1.000000000000000e+00,0.000000000000000e+00
	0.000000000000000e+00,0.000000000000000e+00
	1.186875935296959e-04,-9.118438568444855e-14
	1.524799071008377e-22,5.497460221098951e-13
	1.187259492108073e-12,1.213043716600394e-14
	-1.186875947169554e-04,-4.706920735914505e-13
	-1.186875935296959e-04,9.118438568444850e-14
	-1.524799071008377e-22,-5.497460221098951e-13
	-1.186875935296959e-04,9.118438568444850e-14
11		1.288249551693134e+00,0.000000000000000e+00
	-1.186875935296959e+00,9.330834287632165e-10
	1.000000000000000e+00,0.000000000000000e+00
	0.000000000000000e+00,0.000000000000000e+00
	1.186875935296959e-04,-9.330834287632172e-14
	1.596660637294363e-22,5.625512519592762e-13
	1.187259492108073e-12,1.241299134527378e-14
	-1.186875947169554e-04,-4.816559004282283e-13
	-1.186875935296959e-04,9.330834287632165e-14
	-1.596660637294363e-22,-5.625512519592762e-13
	-1.186875935296959e-04,9.330834287632165e-14
12		1.318256738556407e+00,0.000000000000000e+00
	-1.186875935296959e+00,9.548177338666978e-10
	1.000000000000000e+00,0.000000000000000e+00
	0.000000000000000e+00,0.000000000000000e+00
	1.186875935296959e-04,-9.548177338666982e-14
	1.671908934860070e-22,5.756547539286922e-13
	1.187259492108073e-12,1.270212705686043e-14
	-1.186875947169554e-04,-4.928751075988828e-13
	-1.186875935296959e-04,9.548177338666978e-14
	-1.671908934860070e-22,-5.756547539286922e-13
	-1.186875935296959e-04,9.548177338666978e-14
13		1.348962882591653e+00,0.000000000000000e+00
	-1.186875935296959e+00,9.770582959711819e-10
	1.000000000000000e+00,0.000000000000000e+00
	0.000000000000000e+00,0.000000000000000e+00
	1.186875935296959e-04,-9.770582959711826e-14
	1.750703575433351e-22,5.890634756683328e-13
	1.187259492108073e-12,1.299799760434490e-14
	-1.186875947169554e-04,-5.043556436755594e-13
	-1.186875935296959e-04,9.770582959711820e-14
	-1.750703575433351e-22,-5.890634756683328e-13
	-1.186875935296959e-04,9.770582959711820e-14
14		1.380384264602885e+00,0.000000000000000e+00
	-1.186875935296959e+00,9.998169073170856e-10
	1.000000000000000e+00,0.000000000000000e+00
	0.000000000000000e+00,0.000000000000000e+00
	1.186875935296959e-04,-9.998169073170858e-14
	1.833211693011044e-22,6.027845266599495e-13
	1.187259492108073e-12,1.330075986220811e-14
	-1.186875947169554e-04,-5.161035957904490e-13
	-1.186875935296959e-04,9.998169073170857e-14
	-1.833211693011044e-22,-6.027845266599495e-13
	-1.186875935296959e-04,9.998169073170857e-14
15		1.412537544622754e+00,0.000000000000000e+00
	-1.186875935296959e+00,1.023105634821390e-09
	1.000000000000000e+00,0.000000000000000e+00
	0.000000000000000e+00,0.000000000000000e+00
	1.186875935296959e-04,-1.023105634821390e-13
	1.919608298372586e-22,6.168251819863976e-13
	1.187259492108073e-12,1.361057435900678e-14
	-1.186875947169554e-04,-5.281251928632654e-13
	-1.186875935296959e-04,1.023105634821390e-13
	-1.919608298372586e-22,-6.168251819863976e-13
	-1.186875935296959e-04,1.023105634821390e-13
16		1.445439770745927e+00,0.000000000000000e+00
	-1.186875935296959e+00,1.046936826475680e-09
	1.000000000000000e+00,0.000000000000000e+00
	0.000000000000000e+00,0.000000000000000e+00
	1.186875935296959e-04,-1.046936826475682e-13
	2.010076650301342e-22,6.311928861889814e-13
	1.187259492108073e-12,1.392760536248781e-14
	-1.186875947169554e-04,-5.404268089039011e-13
	-1.186875935296959e-04,1.046936826475680e-13
	-2.010076650301342e-22,-6.311928861889814e-13
	-1.186875935296959e-04,1.046936826475680e-13
17		1.479108388168207e+00,0.000000000000000e+00
	-1.186875935296959e+00,1.071323117893215e-09
	1.000000000000000e+00,0.000000000000000e+00
	0.000000000000000e+00,0.000000000000000e+00
	1.186875935296959e-04,-1.071323117893216e-13
	2.104808644301060e-22,6.458952572146483e-13
	1.187259492108073e-12,1.425202096668553e-14
	-1.186875947169554e-04,-5.530149663920122e-13
	-1.186875935296959e-04,1.071323117893216e-13
	-2.104808644301060e-22,-6.458952572146483e-13
	-1.186875935296959e-04,1.071323117893216e-13
18		1.513561248436208e+00,0.000000000000000e+00
	-1.186875935296959e+00,1.096277439008495e-09
	1.000000000000000e+00,0.000000000000000e+00
	0.000000000000000e+00,0.000000000000000e+00
	1.186875935296959e-04,-1.096277439008497e-13
	2.204005219631951e-22,6.609400904551248e-13
	1.187259492108073e-12,1.458399318104767e-14
	-1.186875947169554e-04,-5.658963397353228e-13
	-1.186875935296959e-04,1.096277439008495e-13
	-2.204005219631951e-22,-6.609400904551248e-13
	-1.186875935296959e-04,1.096277439008495e-13
19		1.548816618912481e+00,0.000000000000000e+00
	-1.186875935296959e+00,1.121813020932885e-09
	1.000000000000000e+00,0.000000000000000e+00
	0.000000000000000e+00,0.000000000000000e+00
	1.186875935296959e-04,-1.121813020932888e-13
	2.307876785529809e-22,6.763353628801369e-13
	1.187259492108073e-12,1.492369802163653e-14
	-1.186875947169554e-04,-5.790777588084847e-13
	-1.186875935296959e-04,1.121813020932885e-13
	-2.307876785529809e-22,-6.763353628801369e-13
	-1.186875935296959e-04,1.121813020932885e-13
20		1.584893192461113e+00,0.000000000000000e+00
	-1.186875935296959e+00,1.147943402969924e-09
	1.000000000000000e+00,0.000000000000000e+00
	0.000000000000000e+00,0.000000000000000e+00
	1.186875935296959e-04,-1.147943402969926e-13
	2.416643667512206e-22,6.920892372669050e-13
	1.187259492108073e-12,1.527131560445473e-14
	-1.186875947169554e-04,-5.925662125743671e-13
	-1.186875935296959e-04,1.147943402969925e-13
	-2.416643667512206e-22,-6.920892372669050e-13
	-1.186875935296959e-04,1.147943402969925e-13
21		1.621810097358929e+00,0.000000000000000e+00
	-1.186875935296959e+00,1.174682439794045e-09
	1.000000000000000e+00,0.000000000000000e+00
	0.000000000000000e+00,0.000000000000000e+00
	1.186875935296959e-04,-1.174682439794047e-13
	2.530536574718457e-22,7.082100665281559e-13
	1.187259492108073e-12,1.562703024094619e-14
	-1.186875947169554e-04,-6.063688527896974e-13
	-1.186875935296959e-04,1.174682439794045e-13
	-2.530536574718457e-22,-7.082100665281559e-13
	-1.186875935296959e-04,1.174682439794045e-13
22		1.659586907437560e+00,0.000000000000000e+00
	-1.186875935296959e+00,1.202044308796506e-09
	1.000000000000000e+00,0.000000000000000e+00
	0.000000000000000e+00,0.000000000000000e+00
	1.186875935296959e-04,-1.202044308796507e-13
	2.649797089274635e-22,7.247063981409486e-13
	1.187259492108073e-12,1.599103053571985e-14
	-1.186875947169554e-04,-6.204929977970177e-13
	-1.186875935296959e-04,1.202044308796506e-13
	-2.649797089274635e-22,-7.247063981409486e-13
	-1.186875935296959e-04,1.202044308796506e-13
23		1.698243652461743e+00,0.000000000000000e+00
	-1.186875935296959e+00,1.230043517602427e-09
	1.000000000000000e+00,0.000000000000000e+00
	0.000000000000000e+00,0.000000000000000e+00
	1.186875935296959e-04,-1.230043517602428e-13
	2.774678178721648e-22,7.415869786786589e-13
	1.187259492108073e-12,1.636350948654958e-14
	-1.186875947169554e-04,-6.349461364049657e-13
	-1.186875935296959e-04,1.230043517602427e-13
	-2.774678178721648e-22,-7.415869786786589e-13
	-1.186875935296959e-04,1.230043517602427e-13
24		1.737800828749374e+00,0.000000000000000e+00
	-1.186875935296959e+00,1.258694911762932e-09
	1.000000000000000e+00,0.000000000000000e+00
	0.000000000000000e+00,0.000000000000000e+00
	1.186875935296959e-04,-1.258694911762932e-13
	2.905444732593313e-22,7.588607584485286e-13
	1.187259492108073e-12,1.674466458670572e-14
	-1.186875947169554e-04,-6.497359318589411e-13
	-1.186875935296959e-04,1.258694911762932e-13
	-2.905444732593313e-22,-7.588607584485286e-13
	-1.186875935296959e-04,1.258694911762932e-13
25		1.778279410038922e+00,0.000000000000000e+00
	-1.186875935296959e+00,1.288013682626450e-09
	1.000000000000000e+00,0.000000000000000e+00
	0.000000000000000e+00,0.000000000000000e+00
	1.186875935296959e-04,-1.288013682626451e-13
	3.042374124282570e-22,7.765368962372375e-13
	1.187259492108073e-12,1.713469792966763e-14
	-1.186875947169554e-04,-6.648702259042600e-13
	-1.186875935296959e-04,1.288013682626451e-13
	-3.042374124282570e-22,-7.765368962372375e-13
	-1.186875935296959e-04,1.288013682626451e-13
26		1.819700858609982e+00,0.000000000000000e+00
	-1.186875935296959e+00,1.318015375393374e-09
	1.000000000000000e+00,0.000000000000000e+00
	0.000000000000000e+00,0.000000000000000e+00
	1.186875935296959e-04,-1.318015375393375e-13
	3.185756799387634e-22,7.946247641670121e-13
	1.187259492108073e-12,1.753381631627652e-14
	-1.186875947169554e-04,-6.803570429439511e-13
	-1.186875935296959e-04,1.318015375393374e-13
	-3.185756799387634e-22,-7.946247641670121e-13
	-1.186875935296959e-04,1.318015375393374e-13
27		1.862087136662866e+00,0.000000000000000e+00
	-1.186875935296959e+00,1.348715897358327e-09
	1.000000000000000e+00,0.000000000000000e+00
	0.000000000000000e+00,0.000000000000000e+00
	1.186875935296959e-04,-1.348715897358329e-13
	3.335896891786053e-22,8.131339526648502e-13
	1.187259492108073e-12,1.794223136438377e-14
	-1.186875947169554e-04,-6.962045942934011e-13
	-1.186875935296959e-04,1.348715897358327e-13
	-3.335896891786053e-22,-8.131339526648502e-13
	-1.186875935296959e-04,1.348715897358327e-13
28		1.905460717963246e+00,0.000000000000000e+00
	-1.186875935296959e+00,1.380131526344425e-09
	1.000000000000000e+00,0.000000000000000e+00
	0.000000000000000e+00,0.000000000000000e+00
	1.186875935296959e-04,-1.380131526344427e-13
	3.493112868743439e-22,8.320742755474917e-13
	1.187259492108073e-12,1.836015962105395e-14
	-1.186875947169554e-04,-7.124212825341030e-13
	-1.186875935296959e-04,1.380131526344425e-13
	-3.493112868743439e-22,-8.320742755474917e-13
	-1.186875935296959e-04,1.380131526344425e-13
29		1.949844599758044e+00,0.000000000000000e+00
	-1.186875935296959e+00,1.412278919333991e-09
	1.000000000000000e+00,0.000000000000000e+00
	0.000000000000000e+00,0.000000000000000e+00
	1.186875935296959e-04,-1.412278919333992e-13
	3.657738206425230e-22,8.514557752248337e-13
	1.187259492108073e-12,1.878782267738046e-14
	-1.186875947169554e-04,-7.290157059688149e-13
	-1.186875935296959e-04,1.412278919333991e-13
	-3.657738206425230e-22,-8.514557752248337e-13
	-1.186875935296959e-04,1.412278919333991e-13
30		1.995262314968878e+00,0.000000000000000e+00
	-1.186875935296959e+00,1.445175121300309e-09
	1.000000000000000e+00,0.000000000000000e+00
	0.000000000000000e+00,0.000000000000000e+00
	1.186875935296959e-04,-1.445175121300311e-13
	3.830122097244351e-22,8.712887280245490e-13
	1.187259492108073e-12,1.922544728597700e-14
	-1.186875947169554e-04,-7.459966631804949e-13
	-1.186875935296959e-04,1.445175121300309e-13
	-3.830122097244351e-22,-8.712887280245490e-13
	-1.186875935296959e-04,1.445175121300309e-13
31		2.041737944669527e+00,0.000000000000000e+00
	-1.186875935296959e+00,1.478837574245095e-09
	1.000000000000000e+00,0.000000000000000e+00
	0.000000000000000e+00,0.000000000000000e+00
	1.186875935296959e-04,-1.478837574245098e-13
	4.010630190545142e-22,8.915836496407328e-13
	1.187259492108073e-12,1.967326548120328e-14
	-1.186875947169554e-04,-7.633731576974263e-13
	-1.186875935296959e-04,1.478837574245095e-13
	-4.010630190545142e-22,-8.915836496407328e-13
	-1.186875935296959e-04,1.478837574245095e-13
32		2.089296130854037e+00,0.000000000000000e+00
	-1.186875935296959e+00,1.513284126446475e-09
	1.000000000000000e+00,0.000000000000000e+00
	0.000000000000000e+00,0.000000000000000e+00
	1.186875935296959e-04,-1.513284126446476e-13
	4.199645368194638e-22,9.123513007094610e-13
	1.187259492108073e-12,2.013151470219400e-14
	-1.186875947169554e-04,-7.811544027670075e-13
	-1.186875935296959e-04,1.513284126446475e-13
	-4.199645368194638e-22,-9.123513007094610e-13
	-1.186875935296959e-04,1.513284126446475e-13
33		2.137962089502230e+00,0.000000000000000e+00
	-1.186875935296959e+00,1.548533041922381e-09
	1.000000000000000e+00,0.000000000000000e+00
	0.000000000000000e+00,0.000000000000000e+00
	1.186875935296959e-04,-1.548533041922382e-13
	4.397568556726337e-22,9.336026925142226e-13
	1.187259492108073e-12,2.060043791875209e-14
	-1.186875947169554e-04,-7.993498262407365e-13
	-1.186875935296959e-04,1.548533041922381e-13
	-4.397568556726337e-22,-9.336026925142226e-13
	-1.186875935296959e-04,1.548533041922381e-13
34		2.187761623949550e+00,0.000000000000000e+00
	-1.186875935296959e+00,1.584603010114371e-09
	1.000000000000000e+00,0.000000000000000e+00
	0.000000000000000e+00,0.000000000000000e+00
	1.186875935296959e-04,-1.584603010114373e-13
	4.604819577759138e-22,9.553490928242476e-13
	1.187259492108073e-12,2.108028376017379e-14
	-1.186875947169554e-04,-8.179690755729841e-13
	-1.186875935296959e-04,1.584603010114371e-13
	-4.604819577759138e-22,-9.553490928242476e-13
	-1.186875935296959e-04,1.584603010114371e-13
35		2.238721138568337e+00,0.000000000000000e+00
	-1.186875935296959e+00,1.621513155797025e-09
	1.000000000000000e+00,0.000000000000000e+00
	0.000000000000000e+00,0.000000000000000e+00
	1.186875935296959e-04,-1.621513155797027e-13
	4.821838038495282e-22,9.776020318688282e-13
	1.187259492108073e-12,2.157130664707560e-14
	-1.186875947169554e-04,-8.370220229362011e-13
	-1.186875935296959e-04,1.621513155797025e-13
	-4.821838038495282e-22,-9.776020318688282e-13
	-1.186875935296959e-04,1.621513155797025e-13
36		2.290867652767770e+00,0.000000000000000e+00
	-1.186875935296959e+00,1.659283049218147e-09
	1.000000000000000e+00,0.000000000000000e+00
	0.000000000000000e+00,0.000000000000000e+00
	1.186875935296959e-04,-1.659283049218147e-13
	5.049084264186162e-22,1.000373308450798e-12
	1.187259492108073e-12,2.207376692629170e-14
	-1.186875947169554e-04,-8.565187704552752e-13
	-1.186875935296959e-04,1.659283049218147e-13
	-5.049084264186162e-22,-1.000373308450798e-12
	-1.186875935296959e-04,1.659283049218147e-13
37		2.344228815319919e+00,0.000000000000000e+00
	-1.186875935296959e+00,1.697932716475171e-09
	1.000000000000000e+00,0.000000000000000e+00
	0.000000000000000e+00,0.000000000000000e+00
	1.186875935296959e-04,-1.697932716475173e-13
	5.287040274543899e-22,1.023674996202415e-12
	1.187259492108073e-12,2.258793100891292e-14
	-1.186875947169554e-04,-8.764696555638110e-13
	-1.186875935296959e-04,1.697932716475171e-13
	-5.287040274543899e-22,-1.023674996202415e-12
	-1.186875935296959e-04,1.697932716475171e-13
38		2.398832919019488e+00,0.000000000000000e+00
	-1.186875935296959e+00,1.737482650133267e-09
	1.000000000000000e+00,0.000000000000000e+00
	0.000000000000000e+00,0.000000000000000e+00
	1.186875935296959e-04,-1.737482650133266e-13
	5.536210806169784e-22,1.047519449986959e-12
	1.187259492108073e-12,2.311407151154168e-14
	-1.186875947169554e-04,-8.968852564851741e-13
	-1.186875935296959e-04,1.737482650133267e-13
	-5.536210806169784e-22,-1.047519449986959e-12
	-1.186875935296959e-04,1.737482650133267e-13
39		2.454708915685027e+00,0.000000000000000e+00
	-1.186875935296959e+00,1.777953820090765e-09
	1.000000000000000e+00,0.000000000000000e+00
	0.000000000000000e+00,0.000000000000000e+00
	1.186875935296959e-04,-1.777953820090767e-13
	5.797124383168264e-22,1.071919312449445e-12
	1.187259492108073e-12,2.365246740083703e-14
	-1.186875947169554e-04,-9.177763978412053e-13
	-1.186875935296959e-04,1.777953820090765e-13
	-5.797124383168264e-22,-1.071919312449445e-12
	-1.186875935296959e-04,1.777953820090765e-13
40		2.511886431509577e+00,0.000000000000000e+00
	-1.186875935296959e+00,1.819367684697677e-09
	1.000000000000000e+00,0.000000000000000e+00
	0.000000000000000e+00,0.000000000000000e+00
	1.186875935296959e-04,-1.819367684697678e-13
	6.070334438217451e-22,1.096887520719921e-12
	1.187259492108073e-12,2.420340414142573e-14
	-1.186875947169554e-04,-9.391541563915790e-13
	-1.186875935296959e-04,1.819367684697677e-13
	-6.070334438217451e-22,-1.096887520719921e-12
	-1.186875935296959e-04,1.819367684697677e-13
41		2.570395782768860e+00,0.000000000000000e+00
	-1.186875935296959e+00,1.861746202133193e-09
	1.000000000000000e+00,0.000000000000000e+00
	0.000000000000000e+00,0.000000000000000e+00
	1.186875935296959e-04,-1.861746202133194e-13
	6.356420486474009e-22,1.122437313272906e-12
	1.187259492108073e-12,2.476717384725959e-14
	-1.186875947169554e-04,-9.610298669068458e-13
	-1.186875935296959e-04,1.861746202133193e-13
	-6.356420486474009e-22,-1.122437313272906e-12
	-1.186875935296959e-04,1.861746202133193e-13
42		2.630267991895378e+00,0.000000000000000e+00
	-1.186875935296959e+00,1.905111842048205e-09
	1.000000000000000e+00,0.000000000000000e+00
	0.000000000000000e+00,0.000000000000000e+00
	1.186875935296959e-04,-1.905111842048208e-13
	6.655989354802523e-22,1.148582236946602e-12
	1.187259492108073e-12,2.534407543650014e-14
	-1.186875947169554e-04,-9.834151281782812e-13
	-1.186875935296959e-04,1.905111842048205e-13
	-6.655989354802523e-22,-1.148582236946602e-12
	-1.186875935296959e-04,1.905111842048205e-13
43		2.691534803926912e+00,0.000000000000000e+00
	-1.186875935296959e+00,1.949487597479007e-09
	1.000000000000000e+00,0.000000000000000e+00
	0.000000000000000e+00,0.000000000000000e+00
	1.186875935296959e-04,-1.949487597479009e-13
	6.969676468936610e-22,1.175336154125610e-12
	1.187259492108073e-12,2.593441479000539e-14
	-1.186875947169554e-04,-1.006321809167715e-12
	-1.186875935296959e-04,1.949487597479007e-13
	-6.969676468936610e-22,-1.175336154125610e-12
	-1.186875935296959e-04,1.949487597479007e-13
44		2.754228703338163e+00,0.000000000000000e+00
	-1.186875935296959e+00,1.994896997038511e-09
	1.000000000000000e+00,0.000000000000000e+00
	0.000000000000000e+00,0.000000000000000e+00
	1.186875935296959e-04,-1.994896997038513e-13
	7.298147201302111e-22,1.202713250090950e-12
	1.187259492108073e-12,2.653850491351448e-14
	-1.186875947169554e-04,-1.029762055300613e-12
	-1.186875935296959e-04,1.994896997038511e-13
	-7.298147201302111e-22,-1.202713250090950e-12
	-1.186875935296959e-04,1.994896997038511e-13
45		2.818382931264450e+00,0.000000000000000e+00
	-1.186875935296959e+00,2.041364117391429e-09
	1.000000000000000e+00,0.000000000000000e+00
	0.000000000000000e+00,0.000000000000000e+00
	1.186875935296959e-04,-2.041364117391431e-13
	7.642098282361216e-22,1.230728040541279e-12
	1.187259492108073e-12,2.715666610360795e-14
	-1.186875947169554e-04,-1.053748294905744e-12
	-1.186875935296959e-04,2.041364117391429e-13
	-7.642098282361216e-22,-1.230728040541279e-12
	-1.186875935296959e-04,2.041364117391429e-13
46		2.884031503126602e+00,0.000000000000000e+00
	-1.186875935296959e+00,2.088913596020036e-09
	1.000000000000000e+00,0.000000000000000e+00
	0.000000000000000e+00,0.000000000000000e+00
	1.186875935296959e-04,-2.088913596020037e-13
	8.002259278471171e-22,1.259395379289314e-12
	1.187259492108073e-12,2.778922611753028e-14
	-1.186875947169554e-04,-1.078293245804841e-12
	-1.186875935296959e-04,2.088913596020036e-13
	-8.002259278471171e-22,-1.259395379289314e-12
	-1.186875935296959e-04,2.088913596020036e-13
47		2.951209226666381e+00,0.000000000000000e+00
	-1.186875935296959e+00,2.137570644287293e-09
	1.000000000000000e+00,0.000000000000000e+00
	0.000000000000000e+00,0.000000000000000e+00
	1.186875935296959e-04,-2.137570644287294e-13
	8.379394139392357e-22,1.288730466137518e-12
	1.187259492108073e-12,2.843652034697409e-14
	-1.186875947169554e-04,-1.103409922055762e-12
	-1.186875935296959e-04,2.137570644287293e-13
	-8.379394139392357e-22,-1.288730466137518e-12
	-1.186875935296959e-04,2.137570644287293e-13
48		3.019951720402012e+00,0.000000000000000e+00
	-1.186875935296959e+00,2.187361060804244e-09
	1.000000000000000e+00,0.000000000000000e+00
	0.000000000000000e+00,0.000000000000000e+00
	1.186875935296959e-04,-2.187361060804244e-13
	8.774302818728137e-22,1.318748854937232e-12
	1.187259492108073e-12,2.909889199590769e-14
	-1.186875947169554e-04,-1.129111640852715e-12
	-1.186875935296959e-04,2.187361060804244e-13
	-8.774302818728137e-22,-1.318748854937232e-12
	-1.186875935296959e-04,2.187361060804244e-13
49		3.090295432513586e+00,0.000000000000000e+00
	-1.186875935296959e+00,2.238311245108778e-09
	1.000000000000000e+00,0.000000000000000e+00
	0.000000000000000e+00,0.000000000000000e+00
	1.186875935296959e-04,-2.238311245108781e-13
	9.187822970733705e-22,1.349466461835538e-12
	1.187259492108073e-12,2.977669226254671e-14
	-1.186875947169554e-04,-1.155412029587206e-12
	-1.186875935296959e-04,2.238311245108778e-13
	-9.187822970733705e-22,-1.349466461835538e-12
	-1.186875935296959e-04,2.238311245108778e-13
50		3.162277660168374e+00,0.000000000000000e+00
	-1.186875935296959e+00,2.290448211663023e-09
	1.000000000000000e+00,0.000000000000000e+00
	0.000000000000000e+00,0.000000000000000e+00
	1.186875935296959e-04,-2.290448211663024e-13
	9.620831727093089e-22,1.380899573714210e-12
	1.187259492108073e-12,3.047028052556480e-14
	-1.186875947169554e-04,-1.182325033073472e-12
	-1.186875935296959e-04,2.290448211663023e-13
	-9.620831727093089e-22,-1.380899573714210e-12
	-1.186875935296959e-04,2.290448211663023e-13
51		3.235936569296277e+00,0.000000000000000e+00
	-1.186875935296959e+00,2.343799604176757e-09
	1.000000000000000e+00,0.000000000000000e+00
	0.000000000000000e+00,0.000000000000000e+00
	1.186875935296959e-04,-2.343799604176758e-13
	1.007424755743301e-21,1.413064856825231e-12
	1.187259492108073e-12,3.118002453463930e-14
	-1.186875947169554e-04,-1.209864920942195e-12
	-1.186875935296959e-04,2.343799604176757e-13
	-1.007424755743301e-21,-1.413064856825231e-12
	-1.186875935296959e-04,2.343799604176757e-13
52		3.311311214825905e+00,0.000000000000000e+00
	-1.186875935296959e+00,2.398393710264480e-09
	1.000000000000000e+00,0.000000000000000e+00
	0.000000000000000e+00,0.000000000000000e+00
	1.186875935296959e-04,-2.398393710264481e-13
	1.054903221752015e-21,1.445979365627466e-12
	1.187259492108073e-12,3.190630060543794e-14
	-1.186875947169554e-04,-1.238046295206456e-12
	-1.186875935296959e-04,2.398393710264480e-13
	-1.054903221752015e-21,-1.445979365627466e-12
	-1.186875935296959e-04,2.398393710264480e-13
53		3.388441561392020e+00,0.000000000000000e+00
	-1.186875935296959e+00,2.454259476443880e-09
	1.000000000000000e+00,0.000000000000000e+00
	0.000000000000000e+00,0.000000000000000e+00
	1.186875935296959e-04,-2.454259476443881e-13
	1.104619278927404e-21,1.479660551829157e-12
	1.187259492108073e-12,3.264949381914812e-14
	-1.186875947169554e-04,-1.266884098003917e-12
	-1.186875935296959e-04,2.454259476443880e-13
	-1.104619278927404e-21,-1.479660551829157e-12
	-1.186875935296959e-04,2.454259476443880e-13
54		3.467368504525310e+00,0.000000000000000e+00
	-1.186875935296959e+00,2.511426523483654e-09
	1.000000000000000e+00,0.000000000000000e+00
	0.000000000000000e+00,0.000000000000000e+00
	1.186875935296959e-04,-2.511426523483656e-13
	1.156678381692284e-21,1.514126273641049e-12
	1.187259492108073e-12,3.340999822664771e-14
	-1.186875947169554e-04,-1.296393619519331e-12
	-1.186875935296959e-04,2.511426523483654e-13
	-1.156678381692284e-21,-1.514126273641049e-12
	-1.186875935296959e-04,2.511426523483654e-13
55		3.548133892335748e+00,0.000000000000000e+00
	-1.186875935296959e+00,2.569925162108841e-09
	1.000000000000000e+00,0.000000000000000e+00
	0.000000000000000e+00,0.000000000000000e+00
	1.186875935296959e-04,-2.569925162108842e-13
	1.211190954383305e-21,1.549394805245057e-12
	1.187259492108073e-12,3.418821705744151e-14
	-1.186875947169554e-04,-1.326590506091614e-12
	-1.186875935296959e-04,2.569925162108841e-13
	-1.211190954383305e-21,-1.549394805245057e-12
	-1.186875935296959e-04,2.569925162108841e-13
56		3.630780547701007e+00,0.000000000000000e+00
	-1.186875935296959e+00,2.629786409071958e-09
	1.000000000000000e+00,0.000000000000000e+00
	0.000000000000000e+00,0.000000000000000e+00
	1.186875935296959e-04,-2.629786409071959e-13
	1.268272625475774e-21,1.585484846483471e-12
	1.187259492108073e-12,3.498456293345327e-14
	-1.186875947169554e-04,-1.357490768509728e-12
	-1.186875935296959e-04,2.629786409071958e-13
	-1.268272625475774e-21,-1.585484846483471e-12
	-1.186875935296959e-04,2.629786409071958e-13
57		3.715352290971718e+00,0.000000000000000e+00
	-1.186875935296959e+00,2.691042003598502e-09
	1.000000000000000e+00,0.000000000000000e+00
	0.000000000000000e+00,0.000000000000000e+00
	1.186875935296959e-04,-2.691042003598504e-13
	1.328044472847149e-21,1.622415532773863e-12
	1.187259492108073e-12,3.579945808780751e-14
	-1.186875947169554e-04,-1.389110790501820e-12
	-1.186875935296959e-04,2.691042003598503e-13
	-1.328044472847149e-21,-1.622415532773863e-12
	-1.186875935296959e-04,2.691042003598503e-13
58		3.801893963205605e+00,0.000000000000000e+00