Title: * GA CMOS Amp | W=3.8629760256790104e-05 L=9.70791012875527e-07 Vbias=0.5708431298867818
Date: Mon Sep  8 18:43:17 2025
Plotname: AC Analysis
Flags: complex forward log
No. Variables: 11
No. Points:          901
Offset:    0.0000000000000000e+00
Command: Linear Technology Corporation LTspice
Variables:
	0	frequency	frequency
	1	V(out)	voltage
	2	V(g)	voltage
	3	V(vdd)	voltage
	4	Id(M1)	device_current
	5	Ig(M1)	device_current
	6	Ib(M1)	device_current
	7	Is(M1)	device_current
	8	I(Rload)	device_current
	9	I(Vg)	device_current
	10	I(Vdd)	device_current
Values:
0		1.000000000000000e+00,0.000000000000000e+00
	-2.484836006737720e-02,4.974597508231033e-10
	1.000000000000000e+00,0.000000000000000e+00
	0.000000000000000e+00,0.000000000000000e+00
	2.484836006737720e-06,-4.974597508231033e-14
	2.414848139602344e-23,3.225808722694699e-13
	2.484835991142602e-14,-8.943885320645249e-15
	-2.484836031586080e-06,-2.638910118665143e-13
	-2.484836006737720e-06,4.974597508231034e-14
	-2.414848139602344e-23,-3.225808722694699e-13
	-2.484836006737720e-06,4.974597508231034e-14
1		1.023292992280754e+00,0.000000000000000e+00
	-2.484836006737720e-02,5.090470769590117e-10
	1.000000000000000e+00,0.000000000000000e+00
	0.000000000000000e+00,0.000000000000000e+00
	2.484836006737720e-06,-5.090470769590116e-14
	2.528656426185218e-23,3.300947460371615e-13
	2.484835991142602e-14,-9.152215172378959e-15
	-2.484836031586080e-06,-2.700378231688814e-13
	-2.484836006737720e-06,5.090470769590116e-14
	-2.528656426185218e-23,-3.300947460371615e-13
	-2.484836006737720e-06,5.090470769590116e-14
2		1.047128548050899e+00,0.000000000000000e+00
	-2.484836006737720e-02,5.209043065931584e-10
	1.000000000000000e+00,0.000000000000000e+00
	0.000000000000000e+00,0.000000000000000e+00
	2.484836006737720e-06,-5.209043065931583e-14
	2.647828332070904e-23,3.377836404085226e-13
	2.484835991142602e-14,-9.365397649741029e-15
	-2.484836031586080e-06,-2.763278120994658e-13
	-2.484836006737720e-06,5.209043065931585e-14
	-2.647828332070904e-23,-3.377836404085226e-13
	-2.484836006737720e-06,5.209043065931585e-14
3		1.071519305237606e+00,0.000000000000000e+00
	-2.484836006737720e-02,5.330377265856444e-10
	1.000000000000000e+00,0.000000000000000e+00
	0.000000000000000e+00,0.000000000000000e+00
	2.484836006737720e-06,-5.330377265856443e-14
	2.772616636849440e-23,3.456516321371233e-13
	2.484835991142602e-14,-9.583545784902566e-15
	-2.484836031586080e-06,-2.827643136936563e-13
	-2.484836006737720e-06,5.330377265856444e-14
	-2.772616636849440e-23,-3.456516321371233e-13
	-2.484836006737720e-06,5.330377265856444e-14
4		1.096478196143185e+00,0.000000000000000e+00
	-2.484836006737720e-02,5.454537702363544e-10
	1.000000000000000e+00,0.000000000000000e+00
	0.000000000000000e+00,0.000000000000000e+00
	2.484836006737720e-06,-5.454537702363543e-14
	2.903286033245921e-23,3.537028929363233e-13
	2.484835991142602e-14,-9.806775242892562e-15
	-2.484836031586080e-06,-2.893507406697953e-13
	-2.484836006737720e-06,5.454537702363544e-14
	-2.903286033245921e-23,-3.537028929363233e-13
	-2.484836006737720e-06,5.454537702363544e-14
5		1.122018454301963e+00,0.000000000000000e+00
	-2.484836006737720e-02,5.581590206959782e-10
	1.000000000000000e+00,0.000000000000000e+00
	0.000000000000000e+00,0.000000000000000e+00
	2.484836006737720e-06,-5.581590206959781e-14
	3.040113688569258e-23,3.619416916911696e-13
	2.484835991142602e-14,-1.003520438292437e-14
	-2.484836031586080e-06,-2.960905852386474e-13
	-2.484836006737720e-06,5.581590206959782e-14
	-3.040113688569258e-23,-3.619416916911696e-13
	-2.484836006737720e-06,5.581590206959782e-14
6		1.148153621496882e+00,0.000000000000000e+00
	-2.484836006737720e-02,5.711602144564828e-10
	1.000000000000000e+00,0.000000000000000e+00
	0.000000000000000e+00,0.000000000000000e+00
	2.484836006737720e-06,-5.711602144564827e-14
	3.183389832621192e-23,3.703723967218151e-13
	2.484835991142602e-14,-1.026895432115165e-14
	-2.484836031586080e-06,-3.029874209550151e-13
	-2.484836006737720e-06,5.711602144564829e-14
	-3.183389832621192e-23,-3.703723967218151e-13
	-2.484836006737720e-06,5.711602144564829e-14
7		1.174897554939529e+00,0.000000000000000e+00
	-2.484836006737720e-02,5.844642449228914e-10
	1.000000000000000e+00,0.000000000000000e+00
	0.000000000000000e+00,0.000000000000000e+00
	2.484836006737720e-06,-5.844642449228913e-14
	3.333418373312623e-23,3.789994780996607e-13
	2.484835991142602e-14,-1.050814899488562e-14
	-2.484836031586080e-06,-3.100449046124859e-13
	-2.484836006737720e-06,5.844642449228915e-14
	-3.333418373312623e-23,-3.789994780996607e-13
	-2.484836006737720e-06,5.844642449228915e-14
8		1.202264434617413e+00,0.000000000000000e+00
	-2.484836006737720e-02,5.980781660682572e-10
	1.000000000000000e+00,0.000000000000000e+00
	0.000000000000000e+00,0.000000000000000e+00
	2.484836006737720e-06,-5.980781660682572e-14
	3.490517541293039e-23,3.878275100174459e-13
	2.484835991142602e-14,-1.075291522830850e-14
	-2.484836031586080e-06,-3.172667781823117e-13
	-2.484836006737720e-06,5.980781660682572e-14
	-3.490517541293039e-23,-3.878275100174459e-13
	-2.484836006737720e-06,5.980781660682572e-14
9		1.230268770812381e+00,0.000000000000000e+00
	-2.484836006737720e-02,6.120091961737727e-10
	1.000000000000000e+00,0.000000000000000e+00
	0.000000000000000e+00,0.000000000000000e+00
	2.484836006737720e-06,-6.120091961737726e-14
	3.655020564960375e-23,3.968611732145464e-13
	2.484835991142602e-14,-1.100338279971708e-14
	-2.484836031586080e-06,-3.246568707974520e-13
	-2.484836006737720e-06,6.120091961737727e-14
	-3.655020564960375e-23,-3.968611732145464e-13
	-2.484836006737720e-06,6.120091961737727e-14
10		1.258925411794167e+00,0.000000000000000e+00
	-2.484836006737720e-02,6.262647216559989e-10
	1.000000000000000e+00,0.000000000000000e+00
	0.000000000000000e+00,0.000000000000000e+00
	2.484836006737720e-06,-6.262647216559989e-14
	3.827276377283137e-23,4.061052574587638e-13
	2.484835991142602e-14,-1.125968451033305e-14
	-2.484836031586080e-06,-3.322191007828309e-13
	-2.484836006737720e-06,6.262647216559990e-14
	-3.827276377283137e-23,-4.061052574587638e-13
	-2.484836006737720e-06,6.262647216559990e-14
11		1.288249551693134e+00,0.000000000000000e+00
	-2.484836006737720e-02,6.408523009832409e-10
	1.000000000000000e+00,0.000000000000000e+00
	0.000000000000000e+00,0.000000000000000e+00
	2.484836006737720e-06,-6.408523009832407e-14
	4.007650355933999e-23,4.155646640859246e-13
	2.484835991142602e-14,-1.152195625471605e-14
	-2.484836031586080e-06,-3.399574777328844e-13
	-2.484836006737720e-06,6.408523009832409e-14
	-4.007650355933999e-23,-4.155646640859246e-13
	-2.484836006737720e-06,6.408523009832409e-14
12		1.318256738556407e+00,0.000000000000000e+00
	-2.484836006737720e-02,6.557796686831470e-10
	1.000000000000000e+00,0.000000000000000e+00
	0.000000000000000e+00,0.000000000000000e+00
	2.484836006737720e-06,-6.557796686831468e-14
	4.196525098304839e-23,4.252444085986321e-13
	2.484835991142602e-14,-1.179033709281627e-14
	-2.484836031586080e-06,-3.478761046375012e-13
	-2.484836006737720e-06,6.557796686831471e-14
	-4.196525098304839e-23,-4.252444085986321e-13
	-2.484836006737720e-06,6.557796686831471e-14
13		1.348962882591653e+00,0.000000000000000e+00
	-2.484836006737720e-02,6.710547394436590e-10
	1.000000000000000e+00,0.000000000000000e+00
	0.000000000000000e+00,0.000000000000000e+00
	2.484836006737720e-06,-6.710547394436589e-14
	4.394301233047104e-23,4.351496233255540e-13
	2.484835991142602e-14,-1.206496932370675e-14
	-2.484836031586080e-06,-3.559791800574813e-13
	-2.484836006737720e-06,6.710547394436590e-14
	-4.394301233047104e-23,-4.351496233255540e-13
	-2.484836006737720e-06,6.710547394436590e-14
14		1.380384264602885e+00,0.000000000000000e+00
	-2.484836006737720e-02,6.866856123094836e-10
	1.000000000000000e+00,0.000000000000000e+00
	0.000000000000000e+00,0.000000000000000e+00
	2.484836006737720e-06,-6.866856123094837e-14
	4.601398269858892e-23,4.452855601426492e-13
	2.484835991142602e-14,-1.234599856103137e-14
	-2.484836031586080e-06,-3.642710003506694e-13
	-2.484836006737720e-06,6.866856123094837e-14
	-4.601398269858892e-23,-4.452855601426492e-13
	-2.484836006737720e-06,6.866856123094837e-14
15		1.412537544622754e+00,0.000000000000000e+00
	-2.484836006737720e-02,7.026805749763133e-10
	1.000000000000000e+00,0.000000000000000e+00
	0.000000000000000e+00,0.000000000000000e+00
	2.484836006737720e-06,-7.026805749763132e-14
	4.818255489321263e-23,4.556575932577831e-13
	2.484835991142602e-14,-1.263357381021166e-14
	-2.484836031586080e-06,-3.727559619499402e-13
	-2.484836006737720e-06,7.026805749763133e-14
	-4.818255489321263e-23,-4.556575932577831e-13
	-2.484836006737720e-06,7.026805749763133e-14
16		1.445439770745927e+00,0.000000000000000e+00
	-2.484836006737720e-02,7.190481081850723e-10
	1.000000000000000e+00,0.000000000000000e+00
	0.000000000000000e+00,0.000000000000000e+00
	2.484836006737720e-06,-7.190481081850723e-14
	5.045332874671248e-23,4.662712220602035e-13
	2.484835991142602e-14,-1.292784754745120e-14
	-2.484836031586080e-06,-3.814385636942451e-13
	-2.484836006737720e-06,7.190481081850724e-14
	-5.045332874671248e-23,-4.662712220602035e-13
	-2.484836006737720e-06,7.190481081850724e-14
17		1.479108388168207e+00,0.000000000000000e+00
	-2.484836006737720e-02,7.357968902185180e-10
	1.000000000000000e+00,0.000000000000000e+00
	0.000000000000000e+00,0.000000000000000e+00
	2.484836006737720e-06,-7.357968902185180e-14
	5.283112087487974e-23,4.771320740363896e-13
	2.484835991142602e-14,-1.322897580058070e-14
	-2.484836031586080e-06,-3.903234092139571e-13
	-2.484836006737720e-06,7.357968902185181e-14
	-5.283112087487974e-23,-4.771320740363896e-13
	-2.484836006737720e-06,7.357968902185181e-14
18		1.513561248436208e+00,0.000000000000000e+00
	-2.484836006737720e-02,7.529358015025810e-10
	1.000000000000000e+00,0.000000000000000e+00
	0.000000000000000e+00,0.000000000000000e+00
	2.484836006737720e-06,-7.529358015025808e-14
	5.532097489361441e-23,4.882459077538195e-13
	2.484835991142602e-14,-1.353711823178606e-14
	-2.484836031586080e-06,-3.994152093717754e-13
	-2.484836006737720e-06,7.529358015025811e-14
	-5.532097489361441e-23,-4.882459077538195e-13
	-2.484836006737720e-06,7.529358015025811e-14
19		1.548816618912481e+00,0.000000000000000e+00
	-2.484836006737720e-02,7.704739293148840e-10
	1.000000000000000e+00,0.000000000000000e+00
	0.000000000000000e+00,0.000000000000000e+00
	2.484836006737720e-06,-7.704739293148840e-14
	5.792817211711071e-23,4.996186159142390e-13
	2.484835991142602e-14,-1.385243822226270e-14
	-2.484836031586080e-06,-4.087187847604879e-13
	-2.484836006737720e-06,7.704739293148841e-14
	-5.792817211711071e-23,-4.996186159142390e-13
	-2.484836006737720e-06,7.704739293148841e-14
20		1.584893192461113e+00,0.000000000000000e+00
	-2.484836006737720e-02,7.884205726029378e-10
	1.000000000000000e+00,0.000000000000000e+00
	0.000000000000000e+00,0.000000000000000e+00
	2.484836006737720e-06,-7.884205726029378e-14
	6.065824276023274e-23,5.112562284780504e-13
	2.484835991142602e-14,-1.417510295884345e-14
	-2.484836031586080e-06,-4.182390682589132e-13
	-2.484836006737720e-06,7.884205726029379e-14
	-6.065824276023274e-23,-5.112562284780504e-13
	-2.484836006737720e-06,7.884205726029379e-14
21		1.621810097358929e+00,0.000000000000000e+00
	-2.484836006737720e-02,8.067852469145658e-10
	1.000000000000000e+00,0.000000000000000e+00
	0.000000000000000e+00,0.000000000000000e+00
	2.484836006737720e-06,-8.067852469145658e-14
	6.351697766884148e-23,5.231649158614771e-13
	2.484835991142602e-14,-1.450528352264267e-14
	-2.484836031586080e-06,-4.279811076473778e-13
	-2.484836006737720e-06,8.067852469145658e-14
	-6.351697766884148e-23,-5.231649158614771e-13
	-2.484836006737720e-06,8.067852469145658e-14
22		1.659586907437560e+00,0.000000000000000e+00
	-2.484836006737720e-02,8.255776894431730e-10
	1.000000000000000e+00,0.000000000000000e+00
	0.000000000000000e+00,0.000000000000000e+00
	2.484836006737720e-06,-8.255776894431731e-14
	6.651044060295540e-23,5.353509922082000e-13
	2.484835991142602e-14,-1.484315497976583e-14
	-2.484836031586080e-06,-4.379500682841168e-13
	-2.484836006737720e-06,8.255776894431731e-14
	-6.651044060295540e-23,-5.353509922082000e-13
	-2.484836006737720e-06,8.255776894431731e-14
23		1.698243652461743e+00,0.000000000000000e+00
	-2.484836006737720e-02,8.448078641905357e-10
	1.000000000000000e+00,0.000000000000000e+00
	0.000000000000000e+00,0.000000000000000e+00
	2.484836006737720e-06,-8.448078641905357e-14
	6.964498109879828e-23,5.478209187371996e-13
	2.484835991142602e-14,-1.518889647413151e-14
	-2.484836031586080e-06,-4.481512358440145e-13
	-2.484836006737720e-06,8.448078641905357e-14
	-6.964498109879828e-23,-5.478209187371996e-13
	-2.484836006737720e-06,8.448078641905357e-14
24		1.737800828749374e+00,0.000000000000000e+00
	-2.484836006737720e-02,8.644859672498462e-10
	1.000000000000000e+00,0.000000000000000e+00
	0.000000000000000e+00,0.000000000000000e+00
	2.484836006737720e-06,-8.644859672498460e-14
	7.292724793701697e-23,5.605813071685808e-13
	2.484835991142602e-14,-1.554269132245668e-14
	-2.484836031586080e-06,-4.585900191211395e-13
	-2.484836006737720e-06,8.644859672498462e-14
	-7.292724793701697e-23,-5.605813071685808e-13
	-2.484836006737720e-06,8.644859672498462e-14
25		1.778279410038922e+00,0.000000000000000e+00
	-2.484836006737720e-02,8.846224322118172e-10
	1.000000000000000e+00,0.000000000000000e+00
	0.000000000000000e+00,0.000000000000000e+00
	2.484836006737720e-06,-8.846224322118172e-14
	7.636420324563655e-23,5.736389232291936e-13
	2.484835991142602e-14,-1.590472711145274e-14
	-2.484836031586080e-06,-4.692719528965591e-13
	-2.484836006737720e-06,8.846224322118173e-14
	-7.636420324563655e-23,-5.736389232291936e-13
	-2.484836006737720e-06,8.846224322118173e-14
26		1.819700858609982e+00,0.000000000000000e+00
	-2.484836006737720e-02,9.052279356967089e-10
	1.000000000000000e+00,0.000000000000000e+00
	0.000000000000000e+00,0.000000000000000e+00
	2.484836006737720e-06,-9.052279356967088e-14
	7.996313726766717e-23,5.870006902399112e-13
	2.484835991142602e-14,-1.627519579728734e-14
	-2.484836031586080e-06,-4.802027008729530e-13
	-2.484836006737720e-06,9.052279356967089e-14
	-7.996313726766717e-23,-5.870006902399112e-13
	-2.484836006737720e-06,9.052279356967089e-14
27		1.862087136662866e+00,0.000000000000000e+00
	-2.484836006737720e-02,9.263134030152152e-10
	1.000000000000000e+00,0.000000000000000e+00
	0.000000000000000e+00,0.000000000000000e+00
	2.484836006737720e-06,-9.263134030152151e-14
	8.373168382468708e-23,6.006736927864668e-13
	2.484835991142602e-14,-1.665429380736123e-14
	-2.484836031586080e-06,-4.913880586775840e-13
	-2.484836006737720e-06,9.263134030152152e-14
	-8.373168382468708e-23,-6.006736927864668e-13
	-2.484836006737720e-06,9.263134030152152e-14
28		1.905460717963246e+00,0.000000000000000e+00
	-2.484836006737720e-02,9.478900139612077e-10
	1.000000000000000e+00,0.000000000000000e+00
	0.000000000000000e+00,0.000000000000000e+00
	2.484836006737720e-06,-9.478900139612076e-14
	8.767783650920157e-23,6.146651804757940e-13
	2.484835991142602e-14,-1.704222214445752e-14
	-2.484836031586080e-06,-5.028339569352157e-13
	-2.484836006737720e-06,9.478900139612078e-14
	-8.767783650920157e-23,-6.146651804757940e-13
	-2.484836006737720e-06,9.478900139612078e-14
29		1.949844599758044e+00,0.000000000000000e+00
	-2.484836006737720e-02,9.699692087394102e-10
	1.000000000000000e+00,0.000000000000000e+00
	0.000000000000000e+00,0.000000000000000e+00
	2.484836006737720e-06,-9.699692087394101e-14
	9.180996564012441e-23,6.289825717798650e-13
	2.484835991142602e-14,-1.743918649331528e-14
	-2.484836031586080e-06,-5.145464644126087e-13
	-2.484836006737720e-06,9.699692087394102e-14
	-9.180996564012441e-23,-6.289825717798650e-13
	-2.484836006737720e-06,9.699692087394102e-14
30		1.995262314968878e+00,0.000000000000000e+00
	-2.484836006737720e-02,9.925626940311463e-10
	1.000000000000000e+00,0.000000000000000e+00
	0.000000000000000e+00,0.000000000000000e+00
	2.484836006737720e-06,-9.925626940311462e-14
	9.613683601734642e-23,6.436334579690623e-13
	2.484835991142602e-14,-1.784539732968674e-14
	-2.484836031586080e-06,-5.265317912362609e-13
	-2.484836006737720e-06,9.925626940311464e-14
	-9.613683601734642e-23,-6.436334579690623e-13
	-2.484836006737720e-06,9.925626940311464e-14
31		2.041737944669527e+00,0.000000000000000e+00
	-2.484836006737720e-02,1.015682449201378e-09
	1.000000000000000e+00,0.000000000000000e+00
	0.000000000000000e+00,0.000000000000000e+00
	2.484836006737720e-06,-1.015682449201378e-13
	1.006676255130513e-22,6.586256071371706e-13
	2.484835991142602e-14,-1.826107003193402e-14
	-2.484836031586080e-06,-5.387962921850987e-13
	-2.484836006737720e-06,1.015682449201378e-13
	-1.006676255130513e-22,-6.586256071371706e-13
	-2.484836006737720e-06,1.015682449201378e-13
32		2.089296130854037e+00,0.000000000000000e+00
	-2.484836006737720e-02,1.039340732650323e-09
	1.000000000000000e+00,0.000000000000000e+00
	0.000000000000000e+00,0.000000000000000e+00
	2.484836006737720e-06,-1.039340732650323e-13
	1.054119445392132e-22,6.739669683201237e-13
	2.484835991142602e-14,-1.868642499522623e-14
	-2.484836031586080e-06,-5.513464700598652e-13
	-2.484836006737720e-06,1.039340732650324e-13
	-1.054119445392132e-22,-6.739669683201237e-13
	-2.484836006737720e-06,1.039340732650324e-13
33		2.137962089502230e+00,0.000000000000000e+00
	-2.484836006737720e-02,1.063550088313021e-09
	1.000000000000000e+00,0.000000000000000e+00
	0.000000000000000e+00,0.000000000000000e+00
	2.484836006737720e-06,-1.063550088313021e-13
	1.103798564325682e-22,6.896656757106876e-13
	2.484835991142602e-14,-1.912168774839487e-14
	-2.484836031586080e-06,-5.641889791309907e-13
	-2.484836006737720e-06,1.063550088313021e-13
	-1.103798564325682e-22,-6.896656757106876e-13
	-2.484836006737720e-06,1.063550088313021e-13
34		2.187761623949550e+00,0.000000000000000e+00
	-2.484836006737720e-02,1.088323352310291e-09
	1.000000000000000e+00,0.000000000000000e+00
	0.000000000000000e+00,0.000000000000000e+00
	2.484836006737720e-06,-1.088323352310291e-13
	1.155818988003019e-22,7.057300529713178e-13
	2.484835991142602e-14,-1.956708907351335e-14
	-2.484836031586080e-06,-5.773306286667753e-13
	-2.484836006737720e-06,1.088323352310291e-13
	-1.155818988003019e-22,-7.057300529713178e-13
	-2.484836006737720e-06,1.088323352310291e-13
35		2.238721138568337e+00,0.000000000000000e+00
	-2.484836006737720e-02,1.113673659754619e-09
	1.000000000000000e+00,0.000000000000000e+00
	0.000000000000000e+00,0.000000000000000e+00
	2.484836006737720e-06,-1.113673659754619e-13
	1.210291058717261e-22,7.221686176474748e-13
	2.484835991142602e-14,-2.002286512825954e-14
	-2.484836031586080e-06,-5.907783865437534e-13
	-2.484836006737720e-06,1.113673659754619e-13
	-1.210291058717261e-22,-7.221686176474748e-13
	-2.484836006737720e-06,1.113673659754619e-13
36		2.290867652767770e+00,0.000000000000000e+00
	-2.484836006737720e-02,1.139614451714563e-09
	1.000000000000000e+00,0.000000000000000e+00
	0.000000000000000e+00,0.000000000000000e+00
	2.484836006737720e-06,-1.139614451714562e-13
	1.267330319033592e-22,7.389900856837403e-13
	2.484835991142602e-14,-2.048925757113055e-14
	-2.484836031586080e-06,-6.045393829411535e-13
	-2.484836006737720e-06,1.139614451714563e-13
	-1.267330319033592e-22,-7.389900856837403e-13
	-2.484836006737720e-06,1.139614451714563e-13
37		2.344228815319919e+00,0.000000000000000e+00
	-2.484836006737720e-02,1.166159482341386e-09
	1.000000000000000e+00,0.000000000000000e+00
	0.000000000000000e+00,0.000000000000000e+00
	2.484836006737720e-06,-1.166159482341386e-13
	1.327057756870528e-22,7.562033760451255e-13
	2.484835991142602e-14,-2.096651368957333e-14
	-2.484836031586080e-06,-6.186209141214136e-13
	-2.484836006737720e-06,1.166159482341386e-13
	-1.327057756870528e-22,-7.562033760451255e-13
	-2.484836006737720e-06,1.166159482341386e-13
38		2.398832919019488e+00,0.000000000000000e+00
	-2.484836006737720e-02,1.193322826161692e-09
	1.000000000000000e+00,0.000000000000000e+00
	0.000000000000000e+00,0.000000000000000e+00
	2.484836006737720e-06,-1.193322826161692e-13
	1.389600062131519e-22,7.738176154460248e-13
	2.484835991142602e-14,-2.145488653109889e-14
	-2.484836031586080e-06,-6.330304462987568e-13
	-2.484836006737720e-06,1.193322826161692e-13
	-1.389600062131519e-22,-7.738176154460248e-13
	-2.484836006737720e-06,1.193322826161692e-13
39		2.454708915685027e+00,0.000000000000000e+00
	-2.484836006737720e-02,1.221118885539924e-09
	1.000000000000000e+00,0.000000000000000e+00
	0.000000000000000e+00,0.000000000000000e+00
	2.484836006737720e-06,-1.221118885539924e-13
	1.455089895431217e-22,7.918421431893206e-13
	2.484835991142602e-14,-2.195463503745227e-14
	-2.484836031586080e-06,-6.477756195978760e-13
	-2.484836006737720e-06,1.221118885539924e-13
	-1.455089895431217e-22,-7.918421431893206e-13
	-2.484836006737720e-06,1.221118885539924e-13
40		2.511886431509577e+00,0.000000000000000e+00
	-2.484836006737720e-02,1.249562398314688e-09
	1.000000000000000e+00,0.000000000000000e+00
	0.000000000000000e+00,0.000000000000000e+00
	2.484836006737720e-06,-1.249562398314688e-13
	1.523666169486426e-22,8.102865161182052e-13
	2.484835991142602e-14,-2.246602418190647e-14
	-2.484836031586080e-06,-6.628642521048299e-13
	-2.484836006737720e-06,1.249562398314688e-13
	-1.523666169486426e-22,-8.102865161182052e-13
	-2.484836006737720e-06,1.249562398314688e-13
41		2.570395782768860e+00,0.000000000000000e+00
	-2.484836006737720e-02,1.278668445612953e-09
	1.000000000000000e+00,0.000000000000000e+00
	0.000000000000000e+00,0.000000000000000e+00
	2.484836006737720e-06,-1.278668445612953e-13
	1.595474343768597e-22,8.291605136833455e-13
	2.484835991142602e-14,-2.298932510975474e-14
	-2.484836031586080e-06,-6.783043440122956e-13
	-2.484836006737720e-06,1.278668445612953e-13
	-1.595474343768597e-22,-8.291605136833455e-13
	-2.484836006737720e-06,1.278668445612953e-13
42		2.630267991895378e+00,0.000000000000000e+00
	-2.484836006737720e-02,1.308452459846259e-09
	1.000000000000000e+00,0.000000000000000e+00
	0.000000000000000e+00,0.000000000000000e+00
	2.484836006737720e-06,-1.308452459846259e-13
	1.670666733042872e-22,8.484741431280779e-13
	2.484835991142602e-14,-2.352481528207597e-14
	-2.484836031586080e-06,-6.941040818613760e-13
	-2.484836006737720e-06,1.308452459846259e-13
	-1.670666733042872e-22,-8.484741431280779e-13
	-2.484836006737720e-06,1.308452459846259e-13
43		2.691534803926912e+00,0.000000000000000e+00
	-2.484836006737720e-02,1.338930232893192e-09
	1.000000000000000e+00,0.000000000000000e+00
	0.000000000000000e+00,0.000000000000000e+00
	2.484836006737720e-06,-1.338930232893192e-13
	1.749402830448123e-22,8.682376447943797e-13
	2.484835991142602e-14,-2.407277862284752e-14
	-2.484836031586080e-06,-7.102718428822130e-13
	-2.484836006737720e-06,1.338930232893192e-13
	-1.749402830448123e-22,-8.682376447943797e-13
	-2.484836006737720e-06,1.338930232893192e-13
44		2.754228703338163e+00,0.000000000000000e+00
	-2.484836006737720e-02,1.370117924472441e-09
	1.000000000000000e+00,0.000000000000000e+00
	0.000000000000000e+00,0.000000000000000e+00
	2.484836006737720e-06,-1.370117924472441e-13
	1.831849645803277e-22,8.884614975524353e-13
	2.484835991142602e-14,-2.463350566948579e-14
	-2.484836031586080e-06,-7.268161994357054e-13
	-2.484836006737720e-06,1.370117924472441e-13
	-1.831849645803277e-22,-8.884614975524353e-13
	-2.484836006737720e-06,1.370117924472441e-13
45		2.818382931264450e+00,0.000000000000000e+00
	-2.484836006737720e-02,1.402032070710901e-09
	1.000000000000000e+00,0.000000000000000e+00
	0.000000000000000e+00,0.000000000000000e+00
	2.484836006737720e-06,-1.402032070710901e-13
	1.918182059857540e-22,9.091564243566716e-13
	2.484835991142602e-14,-2.520729372689325e-14
	-2.484836031586080e-06,-7.437459235586883e-13
	-2.484836006737720e-06,1.402032070710901e-13
	-1.918182059857540e-22,-9.091564243566716e-13
	-2.484836006737720e-06,1.402032070710901e-13
46		2.884031503126602e+00,0.000000000000000e+00
	-2.484836006737720e-02,1.434689592911339e-09
	1.000000000000000e+00,0.000000000000000e+00
	0.000000000000000e+00,0.000000000000000e+00
	2.484836006737720e-06,-1.434689592911339e-13
	2.008583195235908e-22,9.303333979312093e-13
	2.484835991142602e-14,-2.579444702509231e-14
	-2.484836031586080e-06,-7.610699916149830e-13
	-2.484836006737720e-06,1.434689592911339e-13
	-2.008583195235908e-22,-9.303333979312093e-13
	-2.484836006737720e-06,1.434689592911339e-13
47		2.951209226666381e+00,0.000000000000000e+00
	-2.484836006737720e-02,1.468107806524301e-09
	1.000000000000000e+00,0.000000000000000e+00
	0.000000000000000e+00,0.000000000000000e+00
	2.484836006737720e-06,-1.468107806524301e-13
	2.103244804866813e-22,9.520036465877488e-13
	2.484835991142602e-14,-2.639527688053415e-14
	-2.484836031586080e-06,-7.787975890547845e-13
	-2.484836006737720e-06,1.468107806524301e-13
	-2.103244804866813e-22,-9.520036465877488e-13
	-2.484836006737720e-06,1.468107806524301e-13
48		3.019951720402012e+00,0.000000000000000e+00
	-2.484836006737720e-02,1.502304430328987e-09
	1.000000000000000e+00,0.000000000000000e+00
	0.000000000000000e+00,0.000000000000000e+00
	2.484836006737719e-06,-1.502304430328987e-13
	2.202367678715784e-22,9.741786601789670e-13
	2.484835991142602e-14,-2.701010186116076e-14
	-2.484836031586080e-06,-7.969381152849076e-13
	-2.484836006737720e-06,1.502304430328987e-13
	-2.202367678715784e-22,-9.741786601789670e-13
	-2.484836006737720e-06,1.502304430328987e-13
49		3.090295432513586e+00,0.000000000000000e+00
	-2.484836006737720e-02,1.537297595827982e-09
	1.000000000000000e+00,0.000000000000000e+00
	0.000000000000000e+00,0.000000000000000e+00
	2.484836006737719e-06,-1.537297595827982e-13
	2.306162069687888e-22,9.968701961905908e-13
	2.484835991142602e-14,-2.763924795531504e-14
	-2.484836031586080e-06,-8.155011886524776e-13
	-2.484836006737720e-06,1.537297595827982e-13
	-2.306162069687888e-22,-9.968701961905908e-13
	-2.484836006737720e-06,1.537297595827982e-13
50		3.162277660168374e+00,0.000000000000000e+00
	-2.484836006737720e-02,1.573105856860826e-09
	1.000000000000000e+00,0.000000000000000e+00
	0.000000000000000e+00,0.000000000000000e+00
	2.484836006737719e-06,-1.573105856860825e-13
	2.414848139602336e-22,1.020090285975372e-12
	2.484835991142602e-14,-2.828304874458424e-14
	-2.484836031586080e-06,-8.344966515447056e-13
	-2.484836006737720e-06,1.573105856860826e-13
	-2.414848139602336e-22,-1.020090285975372e-12
	-2.484836006737720e-06,1.573105856860826e-13
51		3.235936569296277e+00,0.000000000000000e+00
	-2.484836006737720e-02,1.609748199441494e-09
	1.000000000000000e+00,0.000000000000000e+00
	0.000000000000000e+00,0.000000000000000e+00
	2.484836006737719e-06,-1.609748199441494e-13
	2.528656426185210e-22,1.043851241132269e-12
	2.484835991142602e-14,-2.894184558066811e-14
	-2.484836031586080e-06,-8.539345756074515e-13
	-2.484836006737720e-06,1.609748199441494e-13
	-2.528656426185210e-22,-1.043851241132269e-12
	-2.484836006737720e-06,1.609748199441494e-13
52		3.311311214825905e+00,0.000000000000000e+00
	-2.484836006737720e-02,1.647244051825043e-09
	1.000000000000000e+00,0.000000000000000e+00
	0.000000000000000e+00,0.000000000000000e+00
	2.484836006737719e-06,-1.647244051825042e-13
	2.647828332070896e-22,1.068165660034218e-12
	2.484835991142602e-14,-2.961598776636931e-14
	-2.484836031586080e-06,-8.738252670853449e-13
	-2.484836006737720e-06,1.647244051825043e-13
	-2.647828332070896e-22,-1.068165660034218e-12
	-2.484836006737720e-06,1.647244051825043e-13
53		3.388441561392020e+00,0.000000000000000e+00
	-2.484836006737720e-02,1.685613294808721e-09
	1.000000000000000e+00,0.000000000000000e+00
	0.000000000000000e+00,0.000000000000000e+00
	2.484836006737719e-06,-1.685613294808721e-13
	2.772616636849431e-22,1.093046434507962e-12
	2.484835991142602e-14,-3.030583274079809e-14
	-2.484836031586080e-06,-8.941792722862917e-13
	-2.484836006737720e-06,1.685613294808721e-13
	-2.772616636849431e-22,-1.093046434507962e-12
	-2.484836006737720e-06,1.685613294808721e-13
54		3.467368504525310e+00,0.000000000000000e+00
	-2.484836006737720e-02,1.724876272273037e-09
	1.000000000000000e+00,0.000000000000000e+00
	0.000000000000000e+00,0.000000000000000e+00
	2.484836006737719e-06,-1.724876272273037e-13
	2.903286033245913e-22,1.118506756669462e-12
	2.484835991142602e-14,-3.101174626889137e-14
	-2.484836031586080e-06,-9.150073831732667e-13
	-2.484836006737720e-06,1.724876272273037e-13
	-2.903286033245913e-22,-1.118506756669462e-12
	-2.484836006737720e-06,1.724876272273037e-13
55		3.548133892335748e+00,0.000000000000000e+00
	-2.484836006737720e-02,1.765053801968349e-09
	1.000000000000000e+00,0.000000000000000e+00
	0.000000000000000e+00,0.000000000000000e+00
	2.484836006737719e-06,-1.765053801968349e-13
	3.040113688569249e-22,1.144560125918535e-12
	2.484835991142602e-14,-3.173410263534556e-14
	-2.484836031586080e-06,-9.363206430863545e-13
	-2.484836006737720e-06,1.765053801968349e-13
	-3.040113688569249e-22,-1.144560125918535e-12
	-2.484836006737720e-06,1.765053801968349e-13
56		3.630780547701007e+00,0.000000000000000e+00
	-2.484836006737720e-02,1.806167186552713e-09
	1.000000000000000e+00,0.000000000000000e+00
	0.000000000000000e+00,0.000000000000000e+00
	2.484836006737719e-06,-1.806167186552713e-13
	3.183389832621181e-22,1.171220356096414e-12
	2.484835991142602e-14,-3.247328484306699e-14
	-2.484836031586080e-06,-9.581303525980758e-13
	-2.484836006737720e-06,1.806167186552714e-13
	-3.183389832621181e-22,-1.171220356096414e-12
	-2.484836006737720e-06,1.806167186552714e-13
57		3.715352290971718e+00,0.000000000000000e+00
	-2.484836006737720e-02,1.848238224886837e-09
	1.000000000000000e+00,0.000000000000000e+00
	0.000000000000000e+00,0.000000000000000e+00
	2.484836006737719e-06,-1.848238224886837e-13
	3.333418373312614e-22,1.198501582810030e-12
	2.484835991142602e-14,-3.322968481624754e-14
	-2.484836031586080e-06,-9.804480755050988e-13
	-2.484836006737720e-06,1.848238224886837e-13
	-3.333418373312614e-22,-1.198501582810030e-12
	-2.484836006737720e-06,1.848238224886837e-13