Title: * GA CMOS Amp | W=1e-06 L=7.166962894663475e-07 Vbias=1.171829269134076
Date: Mon Sep  8 18:45:10 2025
Plotname: AC Analysis
Flags: complex forward log
No. Variables: 11
No. Points:          901
Offset:    0.0000000000000000e+00
Command: Linear Technology Corporation LTspice
Variables:
	0	frequency	frequency
	1	V(out)	voltage
	2	V(g)	voltage
	3	V(vdd)	voltage
	4	Id(M1)	device_current
	5	Ig(M1)	device_current
	6	Ib(M1)	device_current
	7	Is(M1)	device_current
	8	I(Rload)	device_current
	9	I(Vg)	device_current
	10	I(Vdd)	device_current
Values:
0		1.000000000000000e+00,0.000000000000000e+00
	-3.455539274580757e-01,1.669053779792178e-11
	1.000000000000000e+00,0.000000000000000e+00
	0.000000000000000e+00,0.000000000000000e+00
	3.455539274580756e-05,-1.669053779792178e-15
	2.097394837216553e-26,7.155835129158639e-15
	3.455539280823421e-13,-4.714497229270596e-16
	-3.455539309136149e-05,-5.015331626439401e-15
	-3.455539274580757e-05,1.669053779792178e-15
	-2.097394837216553e-26,-7.155835129158637e-15
	-3.455539274580757e-05,1.669053779792178e-15
1		1.023292992280754e+00,0.000000000000000e+00
	-3.455539274580757e-01,1.707931036601041e-11
	1.000000000000000e+00,0.000000000000000e+00
	0.000000000000000e+00,0.000000000000000e+00
	3.455539274580756e-05,-1.707931036601041e-15
	2.196242010584022e-26,7.322515941584480e-15
	3.455539280823421e-13,-4.824311976839624e-16
	-3.455539309136149e-05,-5.132153707299476e-15
	-3.455539274580757e-05,1.707931036601041e-15
	-2.196242010584022e-26,-7.322515941584480e-15
	-3.455539274580757e-05,1.707931036601041e-15
2		1.047128548050899e+00,0.000000000000000e+00
	-3.455539274580757e-01,1.747713861052649e-11
	1.000000000000000e+00,0.000000000000000e+00
	0.000000000000000e+00,0.000000000000000e+00
	3.455539274580756e-05,-1.747713861052649e-15
	2.299747707711235e-26,7.493079248887505e-15
	3.455539280823421e-13,-4.936684638476102e-16
	-3.455539309136149e-05,-5.251696923987246e-15
	-3.455539274580757e-05,1.747713861052649e-15
	-2.299747707711235e-26,-7.493079248887505e-15
	-3.455539274580757e-05,1.747713861052649e-15
3		1.071519305237606e+00,0.000000000000000e+00
	-3.455539274580757e-01,1.788423346527115e-11
	1.000000000000000e+00,0.000000000000000e+00
	0.000000000000000e+00,0.000000000000000e+00
	3.455539274580756e-05,-1.788423346527115e-15
	2.408131478059049e-26,7.667615485990920e-15
	3.455539280823421e-13,-5.051674795652630e-16
	-3.455539309136149e-05,-5.374024659898541e-15
	-3.455539274580757e-05,1.788423346527115e-15
	-2.408131478059049e-26,-7.667615485990918e-15
	-3.455539274580757e-05,1.788423346527115e-15
4		1.096478196143185e+00,0.000000000000000e+00
	-3.455539274580757e-01,1.830081077732492e-11
	1.000000000000000e+00,0.000000000000000e+00
	0.000000000000000e+00,0.000000000000000e+00
	3.455539274580756e-05,-1.830081077732492e-15
	2.521623218135639e-26,7.846217194317895e-15
	3.455539280823421e-13,-5.169343417672649e-16
	-3.455539309136149e-05,-5.499201774818139e-15
	-3.455539274580757e-05,1.830081077732492e-15
	-2.521623218135639e-26,-7.846217194317894e-15
	-3.455539274580757e-05,1.830081077732492e-15
5		1.122018454301963e+00,0.000000000000000e+00
	-3.455539274580757e-01,1.872709142149269e-11
	1.000000000000000e+00,0.000000000000000e+00
	0.000000000000000e+00,0.000000000000000e+00
	3.455539274580756e-05,-1.872709142149269e-15
	2.640463659137809e-26,8.028979070858266e-15
	3.455539280823421e-13,-5.289752893997090e-16
	-3.455539309136149e-05,-5.627294639309288e-15
	-3.455539274580757e-05,1.872709142149269e-15
	-2.640463659137809e-26,-8.028979070858264e-15
	-3.455539274580757e-05,1.872709142149269e-15
6		1.148153621496882e+00,0.000000000000000e+00
	-3.455539274580757e-01,1.916330141741450e-11
	1.000000000000000e+00,0.000000000000000e+00
	0.000000000000000e+00,0.000000000000000e+00
	3.455539274580756e-05,-1.916330141741450e-15
	2.764904877574138e-26,8.215998018378102e-15
	3.455539280823421e-13,-5.412967067324046e-16
	-3.455539309136149e-05,-5.758371169904248e-15
	-3.455539274580757e-05,1.916330141741450e-15
	-2.764904877574138e-26,-8.215998018378100e-15
	-3.455539274580757e-05,1.916330141741450e-15
7		1.174897554939529e+00,0.000000000000000e+00
	-3.455539274580757e-01,1.960967204940409e-11
	1.000000000000000e+00,0.000000000000000e+00
	0.000000000000000e+00,0.000000000000000e+00
	3.455539274580756e-05,-1.960967204940409e-15
	2.895210829953057e-26,8.407373196798874e-15
	3.455539280823421e-13,-5.539051267439203e-16
	-3.455539309136149e-05,-5.892500865114544e-15
	-3.455539274580757e-05,1.960967204940410e-15
	-2.895210829953057e-26,-8.407373196798872e-15
	-3.455539274580757e-05,1.960967204940410e-15
8		1.202264434617413e+00,0.000000000000000e+00
	-3.455539274580757e-01,2.006643998907898e-11
	1.000000000000000e+00,0.000000000000000e+00
	0.000000000000000e+00,0.000000000000000e+00
	3.455539274580756e-05,-2.006643998907898e-15
	3.031657912669985e-26,8.603206075773330e-15
	3.455539280823421e-13,-5.668072345854370e-16
	-3.455539309136149e-05,-6.029754842279995e-15
	-3.455539274580757e-05,2.006643998907898e-15
	-3.031657912669985e-26,-8.603206075773329e-15
	-3.455539274580757e-05,2.006643998907898e-15
9		1.230268770812381e+00,0.000000000000000e+00
	-3.455539274580757e-01,2.053384742084682e-11
	1.000000000000000e+00,0.000000000000000e+00
	0.000000000000000e+00,0.000000000000000e+00
	3.455539274580756e-05,-2.053384742084681e-15
	3.174535548281142e-26,8.803600488486056e-15
	3.455539280823421e-13,-5.800098711253126e-16
	-3.455539309136149e-05,-6.170205875276062e-15
	-3.455539274580757e-05,2.053384742084682e-15
	-3.174535548281142e-26,-8.803600488486054e-15
	-3.455539274580757e-05,2.053384742084682e-15
10		1.258925411794167e+00,0.000000000000000e+00
	-3.455539274580757e-01,2.101214217031479e-11
	1.000000000000000e+00,0.000000000000000e+00
	0.000000000000000e+00,0.000000000000000e+00
	3.455539274580756e-05,-2.101214217031478e-15
	3.324146799407599e-26,9.008662686707205e-15
	3.455539280823421e-13,-5.935200365761944e-16
	-3.455539309136149e-05,-6.313928433099532e-15
	-3.455539274580757e-05,2.101214217031479e-15
	-3.324146799407599e-26,-9.008662686707203e-15
	-3.455539274580757e-05,2.101214217031479e-15
11		1.288249551693134e+00,0.000000000000000e+00
	-3.455539274580757e-01,2.150157783569004e-11
	1.000000000000000e+00,0.000000000000000e+00
	0.000000000000000e+00,0.000000000000000e+00
	3.455539274580756e-05,-2.150157783569004e-15
	3.480809011571725e-26,9.218501397128594e-15
	3.455539280823421e-13,-6.073448942066363e-16
	-3.455539309136149e-05,-6.460998719352954e-15
	-3.455539274580757e-05,2.150157783569004e-15
	-3.480809011571725e-26,-9.218501397128593e-15
	-3.455539274580757e-05,2.150157783569004e-15
12		1.318256738556407e+00,0.000000000000000e+00
	-3.455539274580757e-01,2.200241392224080e-11
	1.000000000000000e+00,0.000000000000000e+00
	0.000000000000000e+00,0.000000000000000e+00
	3.455539274580756e-05,-2.200241392224080e-15
	3.644854486329586e-26,9.433227879012031e-15
	3.455539280823421e-13,-6.214917741391463e-16
	-3.455539309136149e-05,-6.611494712648804e-15
	-3.455539274580757e-05,2.200241392224080e-15
	-3.644854486329586e-26,-9.433227879012029e-15
	-3.455539274580757e-05,2.200241392224080e-15
13		1.348962882591653e+00,0.000000000000000e+00
	-3.455539274580757e-01,2.251491597988951e-11
	1.000000000000000e+00,0.000000000000000e+00
	0.000000000000000e+00,0.000000000000000e+00
	3.455539274580756e-05,-2.251491597988951e-15
	3.816631186127107e-26,9.652955983180453e-15
	3.455539280823421e-13,-6.359681772367227e-16
	-3.455539309136149e-05,-6.765496207954779e-15
	-3.455539274580757e-05,2.251491597988951e-15
	-3.816631186127107e-26,-9.652955983180452e-15
	-3.455539274580757e-05,2.251491597988951e-15
14		1.380384264602885e+00,0.000000000000000e+00
	-3.455539274580757e-01,2.303935574401091e-11
	1.000000000000000e+00,0.000000000000000e+00
	0.000000000000000e+00,0.000000000000000e+00
	3.455539274580756e-05,-2.303935574401091e-15
	3.996503472375060e-26,9.877802212383135e-15
	3.455539280823421e-13,-6.507817790799022e-16
	-3.455539309136149e-05,-6.923084858902143e-15
	-3.455539274580757e-05,2.303935574401091e-15
	-3.996503472375060e-26,-9.877802212383134e-15
	-3.455539274580757e-05,2.303935574401091e-15
15		1.412537544622754e+00,0.000000000000000e+00
	-3.455539274580757e-01,2.357601127950970e-11
	1.000000000000000e+00,0.000000000000000e+00
	0.000000000000000e+00,0.000000000000000e+00
	3.455539274580756e-05,-2.357601127950971e-15
	4.184852878308475e-26,1.010788578306699e-14
	3.455539280823421e-13,-6.659404340364666e-16
	-3.455539309136149e-05,-7.084344221079556e-15
	-3.455539274580757e-05,2.357601127950970e-15
	-4.184852878308475e-26,-1.010788578306699e-14
	-3.455539274580757e-05,2.357601127950970e-15
16		1.445439770745927e+00,0.000000000000000e+00
	-3.455539274580757e-01,2.412516712825429e-11
	1.000000000000000e+00,0.000000000000000e+00
	0.000000000000000e+00,0.000000000000000e+00
	3.455539274580756e-05,-2.412516712825429e-15
	4.382078918269779e-26,1.034332868858671e-14
	3.455539280823421e-13,-6.814521794259196e-16
	-3.455539309136149e-05,-7.249359796335365e-15
	-3.455539274580757e-05,2.412516712825429e-15
	-4.382078918269779e-26,-1.034332868858671e-14
	-3.455539274580757e-05,2.412516712825429e-15
17		1.479108388168207e+00,0.000000000000000e+00
	-3.455539274580757e-01,2.468711445994462e-11
	1.000000000000000e+00,0.000000000000000e+00
	0.000000000000000e+00,0.000000000000000e+00
	3.455539274580756e-05,-2.468711445994461e-15
	4.588599935132290e-26,1.058425576388726e-14
	3.455539280823421e-13,-6.973252397809908e-16
	-3.455539309136149e-05,-7.418219078111813e-15
	-3.455539274580757e-05,2.468711445994462e-15
	-4.588599935132290e-26,-1.058425576388726e-14
	-3.455539274580757e-05,2.468711445994462e-15
18		1.513561248436208e+00,0.000000000000000e+00
	-3.455539274580757e-01,2.526215122649420e-11
	1.000000000000000e+00,0.000000000000000e+00
	0.000000000000000e+00,0.000000000000000e+00
	3.455539274580756e-05,-2.526215122649420e-15
	4.804853987661527e-26,1.083079475169302e-14
	3.455539280823421e-13,-7.135680312083845e-16
	-3.455539309136149e-05,-7.591011597835216e-15
	-3.455539274580757e-05,2.526215122649420e-15
	-4.804853987661527e-26,-1.083079475169302e-14
	-3.455539274580757e-05,2.526215122649420e-15
19		1.548816618912481e+00,0.000000000000000e+00
	-3.455539274580757e-01,2.585058232000818e-11
	1.000000000000000e+00,0.000000000000000e+00
	0.000000000000000e+00,0.000000000000000e+00
	3.455539274580756e-05,-2.585058232000817e-15
	5.031299779696590e-26,1.108307637023864e-14
	3.455539280823421e-13,-7.301891658511138e-16
	-3.455539309136149e-05,-7.767828972386706e-15
	-3.455539274580757e-05,2.585058232000818e-15
	-5.031299779696590e-26,-1.108307637023864e-14
	-3.455539274580757e-05,2.585058232000818e-15
20		1.584893192461113e+00,0.000000000000000e+00
	-3.455539274580757e-01,2.645271973444113e-11
	1.000000000000000e+00,0.000000000000000e+00
	0.000000000000000e+00,0.000000000000000e+00
	3.455539274580756e-05,-2.645271973444112e-15
	5.268417633122501e-26,1.134123438257761e-14
	3.455539280823421e-13,-7.471974564547720e-16
	-3.455539309136149e-05,-7.948764952678729e-15
	-3.455539274580757e-05,2.645271973444113e-15
	-5.268417633122501e-26,-1.134123438257761e-14
	-3.455539274580757e-05,2.645271973444113e-15
21		1.621810097358929e+00,0.000000000000000e+00
	-3.455539274580757e-01,2.706888273102041e-11
	1.000000000000000e+00,0.000000000000000e+00
	0.000000000000000e+00,0.000000000000000e+00
	3.455539274580756e-05,-2.706888273102041e-15
	5.516710506697319e-26,1.160540566750522e-14
	3.455539280823421e-13,-7.646019210401729e-16
	-3.455539309136149e-05,-8.133915473363002e-15
	-3.455539274580757e-05,2.706888273102041e-15
	-5.516710506697319e-26,-1.160540566750521e-14
	-3.455539274580757e-05,2.706888273102041e-15
22		1.659586907437560e+00,0.000000000000000e+00
	-3.455539274580757e-01,2.769939800752271e-11
	1.000000000000000e+00,0.000000000000000e+00
	0.000000000000000e+00,0.000000000000000e+00
	3.455539274580756e-05,-2.769939800752271e-15
	5.776705062895107e-26,1.187573029213344e-14
	3.455539280823421e-13,-7.824117876848136e-16
	-3.455539309136149e-05,-8.323378703696353e-15
	-3.455539274580757e-05,2.769939800752271e-15
	-5.776705062895107e-26,-1.187573029213344e-14
	-3.455539274580757e-05,2.769939800752271e-15
23		1.698243652461743e+00,0.000000000000000e+00
	-3.455539274580757e-01,2.834459987149347e-11
	1.000000000000000e+00,0.000000000000000e+00
	0.000000000000000e+00,0.000000000000000e+00
	3.455539274580756e-05,-2.834459987149347e-15
	6.048952785027633e-26,1.215235158615642e-14
	3.455539280823421e-13,-8.006364994157256e-16
	-3.455539309136149e-05,-8.517255099591346e-15
	-3.455539274580757e-05,2.834459987149348e-15
	-6.048952785027633e-26,-1.215235158615642e-14
	-3.455539274580757e-05,2.834459987149348e-15
24		1.737800828749374e+00,0.000000000000000e+00
	-3.455539274580757e-01,2.900483041750124e-11
	1.000000000000000e+00,0.000000000000000e+00
	0.000000000000000e+00,0.000000000000000e+00
	3.455539274580756e-05,-2.900483041750123e-15
	6.334031147014431e-26,1.243541621784577e-14
	3.455539280823421e-13,-8.192857192163069e-16
	-3.455539309136149e-05,-8.715647456879338e-15
	-3.455539274580757e-05,2.900483041750124e-15
	-6.334031147014431e-26,-1.243541621784577e-14
	-3.455539274580757e-05,2.900483041750124e-15
25		1.778279410038922e+00,0.000000000000000e+00
	-3.455539274580757e-01,2.968043970852067e-11
	1.000000000000000e+00,0.000000000000000e+00
	0.000000000000000e+00,0.000000000000000e+00
	3.455539274580756e-05,-2.968043970852067e-15
	6.632544838282394e-26,1.272507427181602e-14
	3.455539280823421e-13,-8.383693351497451e-16
	-3.455539309136149e-05,-8.918660965814204e-15
	-3.455539274580757e-05,2.968043970852067e-15
	-6.632544838282394e-26,-1.272507427181601e-14
	-3.455539274580757e-05,2.968043970852067e-15
26		1.819700858609982e+00,0.000000000000000e+00
	-3.455539274580757e-01,3.037178596154063e-11
	1.000000000000000e+00,0.000000000000000e+00
	0.000000000000000e+00,0.000000000000000e+00
	3.455539274580756e-05,-3.037178596154063e-15
	6.945127046393129e-26,1.302147932860145e-14
	3.455539280823421e-13,-8.578974656018086e-16
	-3.455539309136149e-05,-9.126403266845576e-15
	-3.455539274580757e-05,3.037178596154063e-15
	-6.945127046393129e-26,-1.302147932860145e-14
	-3.455539274580757e-05,3.037178596154063e-15
27		1.862087136662866e+00,0.000000000000000e+00
	-3.455539274580757e-01,3.107923573749551e-11
	1.000000000000000e+00,0.000000000000000e+00
	0.000000000000000e+00,0.000000000000000e+00
	3.455539274580756e-05,-3.107923573749551e-15
	7.272440800118669e-26,1.332478854608656e-14
	3.455539280823421e-13,-8.778804646457497e-16
	-3.455539309136149e-05,-9.338984507691259e-15
	-3.455539274580757e-05,3.107923573749551e-15
	-7.272440800118669e-26,-1.332478854608656e-14
	-3.455539274580757e-05,3.107923573749551e-15
28		1.905460717963246e+00,0.000000000000000e+00
	-3.455539274580757e-01,3.180316413562073e-11
	1.000000000000000e+00,0.000000000000000e+00
	0.000000000000000e+00,0.000000000000000e+00
	3.455539274580756e-05,-3.180316413562072e-15
	7.615180375814382e-26,1.363516274283323e-14
	3.455539280823421e-13,-8.983289275321685e-16
	-3.455539309136149e-05,-9.556517401738993e-15
	-3.455539274580757e-05,3.180316413562073e-15
	-7.615180375814382e-26,-1.363516274283323e-14
	-3.455539274580757e-05,3.180316413562073e-15
29		1.949844599758044e+00,0.000000000000000e+00
	-3.455539274580757e-01,3.254395499233530e-11
	1.000000000000000e+00,0.000000000000000e+00
	0.000000000000000e+00,0.000000000000000e+00
	3.455539274580756e-05,-3.254395499233530e-15
	7.974072770072219e-26,1.395276648334888e-14
	3.455539280823421e-13,-9.192536963067542e-16
	-3.455539309136149e-05,-9.779117287808593e-15
	-3.455539274580757e-05,3.254395499233530e-15
	-7.974072770072219e-26,-1.395276648334887e-14
	-3.455539274580757e-05,3.254395499233530e-15
30		1.995262314968878e+00,0.000000000000000e+00
	-3.455539274580757e-01,3.330200108475697e-11
	1.000000000000000e+00,0.000000000000000e+00
	0.000000000000000e+00,0.000000000000000e+00
	3.455539274580756e-05,-3.330200108475697e-15
	8.349879241777936e-26,1.427776816534068e-14
	3.455539280823421e-13,-9.406658655588807e-16
	-3.455539309136149e-05,-1.000690219130611e-14
	-3.455539274580757e-05,3.330200108475697e-15
	-8.349879241777936e-26,-1.427776816534068e-14
	-3.455539274580757e-05,3.330200108475697e-15
31		2.041737944669527e+00,0.000000000000000e+00
	-3.455539274580757e-01,3.407770433895788e-11
	1.000000000000000e+00,0.000000000000000e+00
	0.000000000000000e+00,0.000000000000000e+00
	3.455539274580756e-05,-3.407770433895788e-15
	8.743396926843273e-26,1.461034010900236e-14
	3.455539280823421e-13,-9.625767883041121e-16
	-3.455539309136149e-05,-1.023999288680246e-14
	-3.455539274580757e-05,3.407770433895788e-15
	-8.743396926843273e-26,-1.461034010900236e-14
	-3.455539274580757e-05,3.407770433895788e-15
32		2.089296130854037e+00,0.000000000000000e+00
	-3.455539274580757e-01,3.487147604307105e-11
	1.000000000000000e+00,0.000000000000000e+00
	0.000000000000000e+00,0.000000000000000e+00
	3.455539274580756e-05,-3.487147604307105e-15
	9.155460529038097e-26,1.495065864838055e-14
	3.455539280823421e-13,-9.849980820037122e-16
	-3.455539309136149e-05,-1.047851296206973e-14
	-3.455539274580757e-05,3.487147604307106e-15
	-9.155460529038097e-26,-1.495065864838054e-14
	-3.455539274580757e-05,3.487147604307106e-15
33		2.137962089502230e+00,0.000000000000000e+00
	-3.455539274580757e-01,3.568373706536081e-11
	1.000000000000000e+00,0.000000000000000e+00
	0.000000000000000e+00,0.000000000000000e+00
	3.455539274580756e-05,-3.568373706536080e-15
	9.586944090508981e-26,1.529890422486946e-14
	3.455539280823421e-13,-1.007941634724382e-15
	-3.455539309136149e-05,-1.072258888360900e-14
	-3.455539274580757e-05,3.568373706536080e-15
	-9.586944090508981e-26,-1.529890422486946e-14
	-3.455539274580757e-05,3.568373706536080e-15
34		2.187761623949550e+00,0.000000000000000e+00
	-3.455539274580757e-01,3.651491807737271e-11
	1.000000000000000e+00,0.000000000000000e+00
	0.000000000000000e+00,0.000000000000000e+00
	3.455539274580756e-05,-3.651491807737271e-15
	1.003876284573982e-25,1.565526148288334e-14
	3.455539280823421e-13,-1.031419611441470e-15
	-3.455539309136149e-05,-1.097235006370460e-14
	-3.455539274580757e-05,3.651491807737271e-15
	-1.003876284573982e-25,-1.565526148288334e-14
	-3.455539274580757e-05,3.651491807737271e-15
35		2.238721138568337e+00,0.000000000000000e+00
	-3.455539274580757e-01,3.736545978228132e-11
	1.000000000000000e+00,0.000000000000000e+00
	0.000000000000000e+00,0.000000000000000e+00
	3.455539274580756e-05,-3.736545978228132e-15
	1.051187516288685e-25,1.601991936775733e-14
	3.455539280823421e-13,-1.055444460488993e-15
	-3.455539309136149e-05,-1.122792892904021e-14
	-3.455539274580757e-05,3.736545978228132e-15
	-1.051187516288685e-25,-1.601991936775733e-14
	-3.455539274580757e-05,3.736545978228132e-15
36		2.290867652767770e+00,0.000000000000000e+00
	-3.455539274580757e-01,3.823581314855683e-11
	1.000000000000000e+00,0.000000000000000e+00
	0.000000000000000e+00,0.000000000000000e+00
	3.455539274580756e-05,-3.823581314855683e-15
	1.100728457660602e-25,1.639307122592881e-14
	3.455539280823421e-13,-1.080028920159926e-15
	-3.455539309136149e-05,-1.148946099091320e-14
	-3.455539274580757e-05,3.823581314855683e-15
	-1.100728457660602e-25,-1.639307122592880e-14
	-3.455539274580757e-05,3.823581314855683e-15
37		2.344228815319919e+00,0.000000000000000e+00
	-3.455539274580757e-01,3.912643964907452e-11
	1.000000000000000e+00,0.000000000000000e+00
	0.000000000000000e+00,0.000000000000000e+00
	3.455539274580756e-05,-3.912643964907451e-15
	1.152604191668452e-25,1.677491490745222e-14
	3.455539280823421e-13,-1.105186025460207e-15
	-3.455539309136149e-05,-1.175708491708456e-14
	-3.455539274580757e-05,3.912643964907452e-15
	-1.152604191668452e-25,-1.677491490745222e-14
	-3.455539274580757e-05,3.912643964907452e-15
38		2.398832919019488e+00,0.000000000000000e+00
	-3.455539274580757e-01,4.003781150579380e-11
	1.000000000000000e+00,0.000000000000000e+00
	0.000000000000000e+00,0.000000000000000e+00
	3.455539274580756e-05,-4.003781150579381e-15
	1.206924753699167e-25,1.716565287090181e-14
	3.455539280823421e-13,-1.130929115020047e-15
	-3.455539309136149e-05,-1.203094260530238e-14
	-3.455539274580757e-05,4.003781150579381e-15
	-1.206924753699167e-25,-1.716565287090181e-14
	-3.455539274580757e-05,4.003781150579381e-15
39		2.454708915685027e+00,0.000000000000000e+00
	-3.455539274580757e-01,4.097041194013655e-11
	1.000000000000000e+00,0.000000000000000e+00
	0.000000000000000e+00,0.000000000000000e+00
	3.455539274580756e-05,-4.097041194013655e-15
	1.263805364947698e-25,1.756549229071783e-14
	3.455539280823421e-13,-1.157271838166286e-15
	-3.455539309136149e-05,-1.231117925853789e-14
	-3.455539274580757e-05,4.097041194013655e-15
	-1.263805364947698e-25,-1.756549229071783e-14
	-3.455539274580757e-05,4.097041194013655e-15
40		2.511886431509577e+00,0.000000000000000e+00
	-3.455539274580757e-01,4.192473542919746e-11
	1.000000000000000e+00,0.000000000000000e+00
	0.000000000000000e+00,0.000000000000000e+00
	3.455539274580756e-05,-4.192473542919745e-15
	1.323366676816621e-25,1.797464516705317e-14
	3.455539280823421e-13,-1.184228162159433e-15
	-3.455539309136149e-05,-1.259794346197399e-14
	-3.455539274580757e-05,4.192473542919746e-15
	-1.323366676816621e-25,-1.797464516705316e-14
	-3.455539274580757e-05,4.192473542919746e-15
41		2.570395782768860e+00,0.000000000000000e+00
	-3.455539274580757e-01,4.290128796792241e-11
	1.000000000000000e+00,0.000000000000000e+00
	0.000000000000000e+00,0.000000000000000e+00
	3.455539274580756e-05,-4.290128796792240e-15
	1.385735026833931e-25,1.839332843817863e-14
	3.455539280823421e-13,-1.211812379599263e-15
	-3.455539309136149e-05,-1.289138726178713e-14
	-3.455539274580757e-05,4.290128796792241e-15
	-1.385735026833931e-25,-1.839332843817863e-14
	-3.455539274580757e-05,4.290128796792241e-15
42		2.630267991895378e+00,0.000000000000000e+00
	-3.455539274580757e-01,4.390058733739364e-11
	1.000000000000000e+00,0.000000000000000e+00
	0.000000000000000e+00,0.000000000000000e+00
	3.455539274580756e-05,-4.390058733739364e-15
	1.451042706631889e-25,1.882176409550650e-14
	3.455539280823421e-13,-1.240039116002988e-15
	-3.455539309136149e-05,-1.319166624576415e-14
	-3.455539274580757e-05,4.390058733739364e-15
	-1.451042706631889e-25,-1.882176409550649e-14
	-3.455539274580757e-05,4.390058733739364e-15
43		2.691534803926912e+00,0.000000000000000e+00
	-3.455539274580757e-01,4.492316337936413e-11
	1.000000000000000e+00,0.000000000000000e+00
	0.000000000000000e+00,0.000000000000000e+00
	3.455539274580756e-05,-4.492316337936412e-15
	1.519428242555298e-25,1.926017930129331e-14
	3.455539280823421e-13,-1.268923337559878e-15
	-3.455539309136149e-05,-1.349893962579702e-14
	-3.455539274580757e-05,4.492316337936413e-15
	-1.519428242555298e-25,-1.926017930129330e-14
	-3.455539274580757e-05,4.492316337936413e-15
44		2.754228703338163e+00,0.000000000000000e+00
	-3.455539274580757e-01,4.596955827718671e-11
	1.000000000000000e+00,0.000000000000000e+00
	0.000000000000000e+00,0.000000000000000e+00
	3.455539274580756e-05,-4.596955827718671e-15
	1.591036689494458e-25,1.970880650908427e-14
	3.455539280823421e-13,-1.298480359066529e-15
	-3.455539309136149e-05,-1.381337032229907e-14
	-3.455539274580757e-05,4.596955827718671e-15
	-1.591036689494458e-25,-1.970880650908427e-14
	-3.455539274580757e-05,4.596955827718671e-15
45		2.818382931264450e+00,0.000000000000000e+00
	-3.455539274580757e-01,4.704032684328689e-11
	1.000000000000000e+00,0.000000000000000e+00
	0.000000000000000e+00,0.000000000000000e+00
	3.455539274580756e-05,-4.704032684328689e-15
	1.666019938566042e-25,2.016788358696325e-14
	3.455539280823421e-13,-1.328725852046980e-15
	-3.455539309136149e-05,-1.413512505058758e-14
	-3.455539274580757e-05,4.704032684328689e-15
	-1.666019938566042e-25,-2.016788358696324e-14
	-3.455539274580757e-05,4.704032684328689e-15
46		2.884031503126602e+00,0.000000000000000e+00
	-3.455539274580757e-01,4.813603681333171e-11
	1.000000000000000e+00,0.000000000000000e+00
	0.000000000000000e+00,0.000000000000000e+00
	3.455539274580756e-05,-4.813603681333171e-15
	1.744537039294508e-25,2.063765394367353e-14
	3.455539280823421e-13,-1.359675853061947e-15
	-3.455539309136149e-05,-1.446437440927841e-14
	-3.455539274580757e-05,4.813603681333171e-15
	-1.744537039294508e-25,-2.063765394367352e-14
	-3.455539274580757e-05,4.813603681333171e-15
47		2.951209226666381e+00,0.000000000000000e+00
	-3.455539274580757e-01,4.925726914725075e-11
	1.000000000000000e+00,0.000000000000000e+00
	0.000000000000000e+00,0.000000000000000e+00
	3.455539274580756e-05,-4.925726914725074e-15
	1.826754536977473e-25,2.111836665767639e-14
	3.455539280823421e-13,-1.391346772211646e-15
	-3.455539309136149e-05,-1.480129297073967e-14
	-3.455539274580757e-05,4.925726914725075e-15
	-1.826754536977473e-25,-2.111836665767639e-14
	-3.455539274580757e-05,4.925726914725075e-15
48		3.019951720402012e+00,0.000000000000000e+00
	-3.455539274580757e-01,5.040461833726870e-11
	1.000000000000000e+00,0.000000000000000e+00
	0.000000000000000e+00,0.000000000000000e+00
	3.455539274580756e-05,-5.040461833726869e-15
	1.912846825950615e-25,2.161027660921578e-14
	3.455539280823421e-13,-1.423755401836625e-15
	-3.455539309136149e-05,-1.514605937365229e-14
	-3.455539274580757e-05,5.040461833726870e-15
	-1.912846825950615e-25,-2.161027660921578e-14
	-3.455539274580757e-05,5.040461833726870e-15
49		3.090295432513586e+00,0.000000000000000e+00
	-3.455539274580757e-01,5.157869272311304e-11
	1.000000000000000e+00,0.000000000000000e+00
	0.000000000000000e+00,0.000000000000000e+00
	3.455539274580756e-05,-5.157869272311304e-15
	2.002996519501439e-25,2.211364461545920e-14
	3.455539280823421e-13,-1.456918925421285e-15
	-3.455539309136149e-05,-1.549885641772661e-14
	-3.455539274580757e-05,5.157869272311305e-15
	-2.002996519501439e-25,-2.211364461545920e-14
	-3.455539274580757e-05,5.157869272311305e-15
50		3.162277660168374e+00,0.000000000000000e+00
	-3.455539274580757e-01,5.278011481456391e-11
	1.000000000000000e+00,0.000000000000000e+00
	0.000000000000000e+00,0.000000000000000e+00
	3.455539274580756e-05,-5.278011481456391e-15
	2.097394837216547e-25,2.262873756878644e-14
	3.455539280823421e-13,-1.490854926704812e-15
	-3.455539309136149e-05,-1.585987116062523e-14
	-3.455539274580757e-05,5.278011481456392e-15
	-2.097394837216547e-25,-2.262873756878643e-14
	-3.455539274580757e-05,5.278011481456392e-15
51		3.235936569296277e+00,0.000000000000000e+00
	-3.455539274580757e-01,5.400952162151685e-11
	1.000000000000000e+00,0.000000000000000e+00
	0.000000000000000e+00,0.000000000000000e+00
	3.455539274580756e-05,-5.400952162151685e-15
	2.196242010584015e-25,2.315582857829939e-14
	3.455539280823421e-13,-1.525581399004269e-15
	-3.455539309136149e-05,-1.622929501714344e-14
	-3.455539274580757e-05,5.400952162151686e-15
	-2.196242010584015e-25,-2.315582857829939e-14
	-3.455539274580757e-05,5.400952162151686e-15
52		3.311311214825905e+00,0.000000000000000e+00
	-3.455539274580757e-01,5.526756499173407e-11
	1.000000000000000e+00,0.000000000000000e+00
	0.000000000000000e+00,0.000000000000000e+00
	3.455539274580756e-05,-5.526756499173407e-15
	2.299747707711228e-25,2.369519711462818e-14
	3.455539280823421e-13,-1.561116754754935e-15
	-3.455539309136149e-05,-1.660732386069984e-14
	-3.455539274580757e-05,5.526756499173407e-15
	-2.299747707711228e-25,-2.369519711462818e-14
	-3.455539274580757e-05,5.526756499173407e-15
53		3.388441561392020e+00,0.000000000000000e+00
	-3.455539274580757e-01,5.655491195646262e-11
	1.000000000000000e+00,0.000000000000000e+00
	0.000000000000000e+00,0.000000000000000e+00
	3.455539274580756e-05,-5.655491195646261e-15
	2.408131478059043e-25,2.424712915811016e-14
	3.455539280823421e-13,-1.597479835272800e-15
	-3.455539309136149e-05,-1.699415812719110e-14
	-3.455539274580757e-05,5.655491195646262e-15
	-2.408131478059043e-25,-2.424712915811016e-14
	-3.455539274580757e-05,5.655491195646262e-15
54		3.467368504525310e+00,0.000000000000000e+00
	-3.455539274580757e-01,5.787224508410321e-11
	1.000000000000000e+00,0.000000000000000e+00
	0.000000000000000e+00,0.000000000000000e+00
	3.455539274580756e-05,-5.787224508410322e-15
	2.521623218135631e-25,2.481191735042047e-14
	3.455539280823421e-13,-1.634689920744467e-15
	-3.455539309136149e-05,-1.739000292126568e-14
	-3.455539274580757e-05,5.787224508410322e-15
	-2.521623218135631e-25,-2.481191735042046e-14
	-3.455539274580757e-05,5.787224508410322e-15
55		3.548133892335748e+00,0.000000000000000e+00
	-3.455539274580757e-01,5.922026284211714e-11
	1.000000000000000e+00,0.000000000000000e+00
	0.000000000000000e+00,0.000000000000000e+00
	3.455539274580756e-05,-5.922026284211715e-15
	2.640463659137800e-25,2.538986114973452e-14
	3.455539280823421e-13,-1.672766740449798e-15
	-3.455539309136149e-05,-1.779506812507301e-14
	-3.455539274580757e-05,5.922026284211715e-15
	-2.640463659137800e-25,-2.538986114973452e-14
	-3.455539274580757e-05,5.922026284211715e-15
56		3.630780547701007e+00,0.000000000000000e+00
	-3.455539274580757e-01,6.059967996736281e-11
	1.000000000000000e+00,0.000000000000000e+00
	0.000000000000000e+00,0.000000000000000e+00
	3.455539274580756e-05,-6.059967996736280e-15
	2.764904877574130e-25,2.598126698950471e-14
	3.455539280823421e-13,-1.711730483222597e-15
	-3.455539309136149e-05,-1.820956850954583e-14
	-3.455539274580757e-05,6.059967996736281e-15
	-2.764904877574130e-25,-2.598126698950470e-14
	-3.455539274580757e-05,6.059967996736281e-15
57		3.715352290971718e+00,0.000000000000000e+00
	-3.455539274580757e-01,6.201122784505876e-11
	1.000000000000000e+00,0.000000000000000e+00
	0.000000000000000e+00,0.000000000000000e+00
	3.455539274580756e-05,-6.201122784505875e-15
	2.895210829953049e-25,2.658644844093545e-14
	3.455539280823421e-13,-1.751601808155029e-15
	-3.455539309136149e-05,-1.863372384827455e-14
	-3.455539274580757e-05,6.201122784505876e-15
	-2.895210829953049e-25,-2.658644844093545e-14
	-3.455539274580757e-05,6.201122784505876e-15
58		3.801893963205605e+00,0.000000000000000e+00