Title: * Amplificador CMOS – W=4.156345566296567e-06 L=1.859035656674129e-07 Vbias=0.4888732812494557
Date: Wed Jul 30 16:05:59 2025
Plotname: Operating Point
Flags: real
No. Variables: 12
No. Points:            1
Offset:    0.0000000000000000e+00
Command: Linear Technology Corporation LTspice
Variables:
	0	V(out)	voltage
	1	V(in)	voltage
	2	V(bias)	voltage
	3	V(vdd)	voltage
	4	Id(M1)	device_current
	5	Ig(M1)	device_current
	6	Ib(M1)	device_current
	7	Is(M1)	device_current
	8	I(Rload)	device_current
	9	I(Vbias)	device_current
	10	I(Vin)	device_current
	11	I(Vdd)	device_current
Values:
0		1.799999968788734e+00
	0.000000000000000e+00
	4.888732812494557e-01
	1.800000000000000e+00
	3.121126656328012e-12
	0.000000000000000e+00
	-2.308873249976330e-12
	-8.122534063516815e-13
	-3.121126646021821e-12
	8.122534063516811e-13
	0.000000000000000e+00
	-3.121126648146857e-12
