Title: * GA CMOS Amp | W=2.2935766489919234e-05 L=6.888849976093553e-07 Vbias=0.5355635103631733
Date: Mon Sep  8 20:16:22 2025
Plotname: AC Analysis
Flags: complex forward log nocompression
No. Variables: 3
No. Points:         1801
Offset:    0.0000000000000000e+00
Command: Linear Technology Corporation LTspice
Variables:
	0	frequency	frequency
	1	V(out)	voltage
	2	V(g)	voltage
Values:
0		1.000000000000000e+00,0.000000000000000e+00
	-2.118280939050783e-02,2.942830413623413e-10
	1.000000000000000e+00,0.000000000000000e+00
1		1.011579454259899e+00,0.000000000000000e+00
	-2.118280939050783e-02,2.976906783792604e-10
	1.000000000000000e+00,0.000000000000000e+00
2		1.023292992280754e+00,0.000000000000000e+00
	-2.118280939050783e-02,3.011377739731512e-10
	1.000000000000000e+00,0.000000000000000e+00
3		1.035142166679344e+00,0.000000000000000e+00
	-2.118280939050783e-02,3.046247850528011e-10
	1.000000000000000e+00,0.000000000000000e+00
4		1.047128548050900e+00,0.000000000000000e+00
	-2.118280939050783e-02,3.081521738177514e-10
	1.000000000000000e+00,0.000000000000000e+00
5		1.059253725177289e+00,0.000000000000000e+00
	-2.118280939050783e-02,3.117204078195624e-10
	1.000000000000000e+00,0.000000000000000e+00
6		1.071519305237607e+00,0.000000000000000e+00
	-2.118280939050783e-02,3.153299600237860e-10
	1.000000000000000e+00,0.000000000000000e+00
7		1.083926914021204e+00,0.000000000000000e+00
	-2.118280939050783e-02,3.189813088726570e-10
	1.000000000000000e+00,0.000000000000000e+00
8		1.096478196143186e+00,0.000000000000000e+00
	-2.118280939050783e-02,3.226749383485106e-10
	1.000000000000000e+00,0.000000000000000e+00
9		1.109174815262402e+00,0.000000000000000e+00
	-2.118280939050783e-02,3.264113380379327e-10
	1.000000000000000e+00,0.000000000000000e+00
10		1.122018454301964e+00,0.000000000000000e+00
	-2.118280939050783e-02,3.301910031966552e-10
	1.000000000000000e+00,0.000000000000000e+00
11		1.135010815672316e+00,0.000000000000000e+00
	-2.118280939050783e-02,3.340144348152009e-10
	1.000000000000000e+00,0.000000000000000e+00
12		1.148153621496884e+00,0.000000000000000e+00
	-2.118280939050783e-02,3.378821396852895e-10
	1.000000000000000e+00,0.000000000000000e+00
13		1.161448613840344e+00,0.000000000000000e+00
	-2.118280939050783e-02,3.417946304670119e-10
	1.000000000000000e+00,0.000000000000000e+00
14		1.174897554939531e+00,0.000000000000000e+00
	-2.118280939050783e-02,3.457524257567836e-10
	1.000000000000000e+00,0.000000000000000e+00
15		1.188502227437020e+00,0.000000000000000e+00
	-2.118280939050783e-02,3.497560501560832e-10
	1.000000000000000e+00,0.000000000000000e+00
16		1.202264434617414e+00,0.000000000000000e+00
	-2.118280939050783e-02,3.538060343409885e-10
	1.000000000000000e+00,0.000000000000000e+00
17		1.216186000646369e+00,0.000000000000000e+00
	-2.118280939050783e-02,3.579029151325160e-10
	1.000000000000000e+00,0.000000000000000e+00
18		1.230268770812383e+00,0.000000000000000e+00
	-2.118280939050783e-02,3.620472355677773e-10
	1.000000000000000e+00,0.000000000000000e+00
19		1.244514611771387e+00,0.000000000000000e+00
	-2.118280939050783e-02,3.662395449719571e-10
	1.000000000000000e+00,0.000000000000000e+00
20		1.258925411794169e+00,0.000000000000000e+00
	-2.118280939050783e-02,3.704803990311260e-10
	1.000000000000000e+00,0.000000000000000e+00
21		1.273503081016663e+00,0.000000000000000e+00
	-2.118280939050783e-02,3.747703598658960e-10
	1.000000000000000e+00,0.000000000000000e+00
22		1.288249551693136e+00,0.000000000000000e+00
	-2.118280939050783e-02,3.791099961059288e-10
	1.000000000000000e+00,0.000000000000000e+00
23		1.303166778452301e+00,0.000000000000000e+00
	-2.118280939050783e-02,3.834998829653077e-10
	1.000000000000000e+00,0.000000000000000e+00
24		1.318256738556409e+00,0.000000000000000e+00
	-2.118280939050783e-02,3.879406023187810e-10
	1.000000000000000e+00,0.000000000000000e+00
25		1.333521432163326e+00,0.000000000000000e+00
	-2.118280939050783e-02,3.924327427788888e-10
	1.000000000000000e+00,0.000000000000000e+00
26		1.348962882591656e+00,0.000000000000000e+00
	-2.118280939050783e-02,3.969768997739835e-10
	1.000000000000000e+00,0.000000000000000e+00
27		1.364583136588927e+00,0.000000000000000e+00
	-2.118280939050783e-02,4.015736756271526e-10
	1.000000000000000e+00,0.000000000000000e+00
28		1.380384264602887e+00,0.000000000000000e+00
	-2.118280939050783e-02,4.062236796360567e-10
	1.000000000000000e+00,0.000000000000000e+00
29		1.396368361055940e+00,0.000000000000000e+00
	-2.118280939050783e-02,4.109275281536901e-10
	1.000000000000000e+00,0.000000000000000e+00
30		1.412537544622757e+00,0.000000000000000e+00
	-2.118280939050783e-02,4.156858446700789e-10
	1.000000000000000e+00,0.000000000000000e+00
31		1.428893958511106e+00,0.000000000000000e+00
	-2.118280939050783e-02,4.204992598949234e-10
	1.000000000000000e+00,0.000000000000000e+00
32		1.445439770745931e+00,0.000000000000000e+00
	-2.118280939050783e-02,4.253684118411979e-10
	1.000000000000000e+00,0.000000000000000e+00
33		1.462177174456721e+00,0.000000000000000e+00
	-2.118280939050783e-02,4.302939459097187e-10
	1.000000000000000e+00,0.000000000000000e+00
34		1.479108388168211e+00,0.000000000000000e+00
	-2.118280939050783e-02,4.352765149746916e-10
	1.000000000000000e+00,0.000000000000000e+00
35		1.496235656094437e+00,0.000000000000000e+00
	-2.118280939050783e-02,4.403167794702491e-10
	1.000000000000000e+00,0.000000000000000e+00
36		1.513561248436212e+00,0.000000000000000e+00
	-2.118280939050783e-02,4.454154074779908e-10
	1.000000000000000e+00,0.000000000000000e+00
37		1.531087461682034e+00,0.000000000000000e+00
	-2.118280939050783e-02,4.505730748155362e-10
	1.000000000000000e+00,0.000000000000000e+00
38		1.548816618912485e+00,0.000000000000000e+00
	-2.118280939050783e-02,4.557904651261046e-10
	1.000000000000000e+00,0.000000000000000e+00
39		1.566751070108153e+00,0.000000000000000e+00
	-2.118280939050783e-02,4.610682699691303e-10
	1.000000000000000e+00,0.000000000000000e+00
40		1.584893192461118e+00,0.000000000000000e+00
	-2.118280939050783e-02,4.664071889119283e-10
	1.000000000000000e+00,0.000000000000000e+00
41		1.603245390690046e+00,0.000000000000000e+00
	-2.118280939050783e-02,4.718079296224220e-10
	1.000000000000000e+00,0.000000000000000e+00
42		1.621810097358934e+00,0.000000000000000e+00
	-2.118280939050783e-02,4.772712079629422e-10
	1.000000000000000e+00,0.000000000000000e+00
43		1.640589773199544e+00,0.000000000000000e+00
	-2.118280939050783e-02,4.827977480851155e-10
	1.000000000000000e+00,0.000000000000000e+00
44		1.659586907437565e+00,0.000000000000000e+00
	-2.118280939050783e-02,4.883882825258491e-10
	1.000000000000000e+00,0.000000000000000e+00
45		1.678804018122565e+00,0.000000000000000e+00
	-2.118280939050783e-02,4.940435523044277e-10
	1.000000000000000e+00,0.000000000000000e+00
46		1.698243652461749e+00,0.000000000000000e+00
	-2.118280939050783e-02,4.997643070207346e-10
	1.000000000000000e+00,0.000000000000000e+00
47		1.717908387157593e+00,0.000000000000000e+00
	-2.118280939050783e-02,5.055513049546112e-10
	1.000000000000000e+00,0.000000000000000e+00
48		1.737800828749381e+00,0.000000000000000e+00
	-2.118280939050783e-02,5.114053131663651e-10
	1.000000000000000e+00,0.000000000000000e+00
49		1.757923613958698e+00,0.000000000000000e+00
	-2.118280939050783e-02,5.173271075984442e-10
	1.000000000000000e+00,0.000000000000000e+00
50		1.778279410038929e+00,0.000000000000000e+00
	-2.118280939050783e-02,5.233174731782859e-10
	1.000000000000000e+00,0.000000000000000e+00
51		1.798870915128794e+00,0.000000000000000e+00
	-2.118280939050783e-02,5.293772039223597e-10
	1.000000000000000e+00,0.000000000000000e+00
52		1.819700858609990e+00,0.000000000000000e+00
	-2.118280939050783e-02,5.355071030414117e-10
	1.000000000000000e+00,0.000000000000000e+00
53		1.840772001468962e+00,0.000000000000000e+00
	-2.118280939050783e-02,5.417079830469304e-10
	1.000000000000000e+00,0.000000000000000e+00
54		1.862087136662874e+00,0.000000000000000e+00
	-2.118280939050783e-02,5.479806658588442e-10
	1.000000000000000e+00,0.000000000000000e+00
55		1.883649089489807e+00,0.000000000000000e+00
	-2.118280939050783e-02,5.543259829144655e-10
	1.000000000000000e+00,0.000000000000000e+00
56		1.905460717963254e+00,0.000000000000000e+00
	-2.118280939050783e-02,5.607447752786969e-10
	1.000000000000000e+00,0.000000000000000e+00
57		1.927524913190943e+00,0.000000000000000e+00
	-2.118280939050783e-02,5.672378937555137e-10
	1.000000000000000e+00,0.000000000000000e+00
58		1.949844599758053e+00,0.000000000000000e+00
	-2.118280939050783e-02,5.738061990007369e-10
	1.000000000000000e+00,0.000000000000000e+00
59		1.972422736114861e+00,0.000000000000000e+00
	-2.118280939050783e-02,5.804505616361123e-10
	1.000000000000000e+00,0.000000000000000e+00
60		1.995262314968888e+00,0.000000000000000e+00
	-2.118280939050783e-02,5.871718623647101e-10
	1.000000000000000e+00,0.000000000000000e+00
61		2.018366363681569e+00,0.000000000000000e+00
	-2.118280939050783e-02,5.939709920876617e-10
	1.000000000000000e+00,0.000000000000000e+00
62		2.041737944669538e+00,0.000000000000000e+00
	-2.118280939050783e-02,6.008488520222474e-10
	1.000000000000000e+00,0.000000000000000e+00
63		2.065380155810538e+00,0.000000000000000e+00
	-2.118280939050783e-02,6.078063538213516e-10
	1.000000000000000e+00,0.000000000000000e+00
64		2.089296130854049e+00,0.000000000000000e+00
	-2.118280939050783e-02,6.148444196943018e-10
	1.000000000000000e+00,0.000000000000000e+00
65		2.113489039836656e+00,0.000000000000000e+00
	-2.118280939050783e-02,6.219639825291058e-10
	1.000000000000000e+00,0.000000000000000e+00
66		2.137962089502242e+00,0.000000000000000e+00
	-2.118280939050783e-02,6.291659860161058e-10
	1.000000000000000e+00,0.000000000000000e+00
67		2.162718523727030e+00,0.000000000000000e+00
	-2.118280939050783e-02,6.364513847730634e-10
	1.000000000000000e+00,0.000000000000000e+00
68		2.187761623949563e+00,0.000000000000000e+00
	-2.118280939050783e-02,6.438211444716922e-10
	1.000000000000000e+00,0.000000000000000e+00
69		2.213094709605648e+00,0.000000000000000e+00
	-2.118280939050783e-02,6.512762419656578e-10
	1.000000000000000e+00,0.000000000000000e+00
70		2.238721138568351e+00,0.000000000000000e+00
	-2.118280939050783e-02,6.588176654200579e-10
	1.000000000000000e+00,0.000000000000000e+00
71		2.264644307593071e+00,0.000000000000000e+00
	-2.118280939050783e-02,6.664464144424025e-10
	1.000000000000000e+00,0.000000000000000e+00
72		2.290867652767784e+00,0.000000000000000e+00
	-2.118280939050783e-02,6.741635002151116e-10
	1.000000000000000e+00,0.000000000000000e+00
73		2.317394649968490e+00,0.000000000000000e+00
	-2.118280939050783e-02,6.819699456295457e-10
	1.000000000000000e+00,0.000000000000000e+00
74		2.344228815319934e+00,0.000000000000000e+00
	-2.118280939050783e-02,6.898667854215885e-10
	1.000000000000000e+00,0.000000000000000e+00
75		2.371373705661667e+00,0.000000000000000e+00
	-2.118280939050783e-02,6.978550663088010e-10
	1.000000000000000e+00,0.000000000000000e+00
76		2.398832919019502e+00,0.000000000000000e+00
	-2.118280939050783e-02,7.059358471291623e-10
	1.000000000000000e+00,0.000000000000000e+00
77		2.426610095082428e+00,0.000000000000000e+00
	-2.118280939050783e-02,7.141101989814172e-10
	1.000000000000000e+00,0.000000000000000e+00
78		2.454708915685043e+00,0.000000000000000e+00
	-2.118280939050783e-02,7.223792053670496e-10
	1.000000000000000e+00,0.000000000000000e+00
79		2.483133105295583e+00,0.000000000000000e+00
	-2.118280939050783e-02,7.307439623338993e-10
	1.000000000000000e+00,0.000000000000000e+00
80		2.511886431509593e+00,0.000000000000000e+00
	-2.118280939050783e-02,7.392055786214416e-10
	1.000000000000000e+00,0.000000000000000e+00
81		2.540972705549319e+00,0.000000000000000e+00
	-2.118280939050783e-02,7.477651758077505e-10
	1.000000000000000e+00,0.000000000000000e+00
82		2.570395782768878e+00,0.000000000000000e+00
	-2.118280939050783e-02,7.564238884581614e-10
	1.000000000000000e+00,0.000000000000000e+00
83		2.600159563165286e+00,0.000000000000000e+00
	-2.118280939050783e-02,7.651828642756574e-10
	1.000000000000000e+00,0.000000000000000e+00
84		2.630267991895396e+00,0.000000000000000e+00
	-2.118280939050783e-02,7.740432642529955e-10
	1.000000000000000e+00,0.000000000000000e+00
85		2.660725059798824e+00,0.000000000000000e+00
	-2.118280939050783e-02,7.830062628265956e-10
	1.000000000000000e+00,0.000000000000000e+00
86		2.691534803926931e+00,0.000000000000000e+00
	-2.118280939050783e-02,7.920730480322103e-10
	1.000000000000000e+00,0.000000000000000e+00
87		2.722701308077928e+00,0.000000000000000e+00
	-2.118280939050783e-02,8.012448216623977e-10
	1.000000000000000e+00,0.000000000000000e+00
88		2.754228703338182e+00,0.000000000000000e+00
	-2.118280939050783e-02,8.105227994258181e-10
	1.000000000000000e+00,0.000000000000000e+00
89		2.786121168629787e+00,0.000000000000000e+00
	-2.118280939050783e-02,8.199082111083744e-10
	1.000000000000000e+00,0.000000000000000e+00
90		2.818382931264471e+00,0.000000000000000e+00
	-2.118280939050783e-02,8.294023007362190e-10
	1.000000000000000e+00,0.000000000000000e+00
91		2.851018267503926e+00,0.000000000000000e+00
	-2.118280939050783e-02,8.390063267406486e-10
	1.000000000000000e+00,0.000000000000000e+00
92		2.884031503126623e+00,0.000000000000000e+00
	-2.118280939050783e-02,8.487215621249075e-10
	1.000000000000000e+00,0.000000000000000e+00
93		2.917427014001185e+00,0.000000000000000e+00
	-2.118280939050783e-02,8.585492946329226e-10
	1.000000000000000e+00,0.000000000000000e+00
94		2.951209226666404e+00,0.000000000000000e+00
	-2.118280939050783e-02,8.684908269199927e-10
	1.000000000000000e+00,0.000000000000000e+00
95		2.985382618917978e+00,0.000000000000000e+00
	-2.118280939050783e-02,8.785474767254544e-10
	1.000000000000000e+00,0.000000000000000e+00
96		3.019951720402035e+00,0.000000000000000e+00
	-2.118280939050783e-02,8.887205770473459e-10
	1.000000000000000e+00,0.000000000000000e+00
97		3.054921113215533e+00,0.000000000000000e+00
	-2.118280939050783e-02,8.990114763190965e-10
	1.000000000000000e+00,0.000000000000000e+00
98		3.090295432513610e+00,0.000000000000000e+00
	-2.118280939050783e-02,9.094215385882573e-10
	1.000000000000000e+00,0.000000000000000e+00
99		3.126079367123975e+00,0.000000000000000e+00
	-2.118280939050783e-02,9.199521436973066e-10
	1.000000000000000e+00,0.000000000000000e+00
100		3.162277660168400e+00,0.000000000000000e+00
	-2.118280939050783e-02,9.306046874665454e-10
	1.000000000000000e+00,0.000000000000000e+00
101		3.198895109691419e+00,0.000000000000000e+00
	-2.118280939050783e-02,9.413805818791114e-10
	1.000000000000000e+00,0.000000000000000e+00
102		3.235936569296304e+00,0.000000000000000e+00
	-2.118280939050783e-02,9.522812552681373e-10
	1.000000000000000e+00,0.000000000000000e+00
103		3.273406948788404e+00,0.000000000000000e+00
	-2.118280939050783e-02,9.633081525060736e-10
	1.000000000000000e+00,0.000000000000000e+00
104		3.311311214825934e+00,0.000000000000000e+00
	-2.118280939050783e-02,9.744627351962050e-10
	1.000000000000000e+00,0.000000000000000e+00
105		3.349654391578300e+00,0.000000000000000e+00
	-2.118280939050783e-02,9.857464818663851e-10
	1.000000000000000e+00,0.000000000000000e+00
106		3.388441561392050e+00,0.000000000000000e+00
	-2.118280939050783e-02,9.971608881650129e-10
	1.000000000000000e+00,0.000000000000000e+00
107		3.427677865464528e+00,0.000000000000000e+00
	-2.118280939050783e-02,1.008707467059280e-09
	1.000000000000000e+00,0.000000000000000e+00
108		3.467368504525342e+00,0.000000000000000e+00
	-2.118280939050783e-02,1.020387749035711e-09
	1.000000000000000e+00,0.000000000000000e+00
109		3.507518739525706e+00,0.000000000000000e+00
	-2.118280939050783e-02,1.032203282303031e-09
	1.000000000000000e+00,0.000000000000000e+00
110		3.548133892335781e+00,0.000000000000000e+00
	-2.118280939050783e-02,1.044155632997376e-09
	1.000000000000000e+00,0.000000000000000e+00
111		3.589219346450079e+00,0.000000000000000e+00
	-2.118280939050783e-02,1.056246385389884e-09
	1.000000000000000e+00,0.000000000000000e+00
112		3.630780547701041e+00,0.000000000000000e+00
	-2.118280939050783e-02,1.068477142096690e-09
	1.000000000000000e+00,0.000000000000000e+00
113		3.672823004980875e+00,0.000000000000000e+00
	-2.118280939050783e-02,1.080849524291345e-09
	1.000000000000000e+00,0.000000000000000e+00
114		3.715352290971754e+00,0.000000000000000e+00
	-2.118280939050783e-02,1.093365171919711e-09
	1.000000000000000e+00,0.000000000000000e+00
115		3.758374042884471e+00,0.000000000000000e+00
	-2.118280939050783e-02,1.106025743917321e-09
	1.000000000000000e+00,0.000000000000000e+00
116		3.801893963205642e+00,0.000000000000000e+00
	-2.118280939050783e-02,1.118832918429282e-09
	1.000000000000000e+00,0.000000000000000e+00
117		3.845917820453566e+00,0.000000000000000e+00
	-2.118280939050783e-02,1.131788393032702e-09
	1.000000000000000e+00,0.000000000000000e+00
118		3.890451449942837e+00,0.000000000000000e+00
	-2.118280939050783e-02,1.144893884961709e-09
	1.000000000000000e+00,0.000000000000000e+00
119		3.935500754557806e+00,0.000000000000000e+00
	-2.118280939050783e-02,1.158151131335060e-09
	1.000000000000000e+00,0.000000000000000e+00
120		3.981071705535005e+00,0.000000000000000e+00
	-2.118280939050783e-02,1.171561889386405e-09
	1.000000000000000e+00,0.000000000000000e+00
121		4.027170343254624e+00,0.000000000000000e+00
	-2.118280939050783e-02,1.185127936697195e-09
	1.000000000000000e+00,0.000000000000000e+00
122		4.073802778041161e+00,0.000000000000000e+00
	-2.118280939050783e-02,1.198851071432308e-09
	1.000000000000000e+00,0.000000000000000e+00
123		4.120975190973336e+00,0.000000000000000e+00
	-2.118280939050783e-02,1.212733112578389e-09
	1.000000000000000e+00,0.000000000000000e+00
124		4.168693834703389e+00,0.000000000000000e+00
	-2.118280939050783e-02,1.226775900184955e-09
	1.000000000000000e+00,0.000000000000000e+00
125		4.216965034285859e+00,0.000000000000000e+00
	-2.118280939050783e-02,1.240981295608293e-09
	1.000000000000000e+00,0.000000000000000e+00
126		4.265795188015963e+00,0.000000000000000e+00
	-2.118280939050783e-02,1.255351181758178e-09
	1.000000000000000e+00,0.000000000000000e+00
127		4.315190768277690e+00,0.000000000000000e+00
	-2.118280939050783e-02,1.269887463347457e-09
	1.000000000000000e+00,0.000000000000000e+00
128		4.365158322401698e+00,0.000000000000000e+00
	-2.118280939050783e-02,1.284592067144508e-09
	1.000000000000000e+00,0.000000000000000e+00
129		4.415704473533165e+00,0.000000000000000e+00
	-2.118280939050783e-02,1.299466942228636e-09
	1.000000000000000e+00,0.000000000000000e+00
130		4.466835921509672e+00,0.000000000000000e+00
	-2.118280939050783e-02,1.314514060248423e-09
	1.000000000000000e+00,0.000000000000000e+00
131		4.518559443749265e+00,0.000000000000000e+00
	-2.118280939050783e-02,1.329735415683063e-09
	1.000000000000000e+00,0.000000000000000e+00
132		4.570881896148792e+00,0.000000000000000e+00
	-2.118280939050782e-02,1.345133026106732e-09
	1.000000000000000e+00,0.000000000000000e+00
133		4.623810213992646e+00,0.000000000000000e+00
	-2.118280939050782e-02,1.360708932456014e-09
	1.000000000000000e+00,0.000000000000000e+00
134		4.677351412872025e+00,0.000000000000000e+00
	-2.118280939050782e-02,1.376465199300424e-09
	1.000000000000000e+00,0.000000000000000e+00
135		4.731512589614849e+00,0.000000000000000e+00
	-2.118280939050782e-02,1.392403915116066e-09
	1.000000000000000e+00,0.000000000000000e+00
136		4.786300923226428e+00,0.000000000000000e+00
	-2.118280939050782e-02,1.408527192562456e-09
	1.000000000000000e+00,0.000000000000000e+00
137		4.841723675841039e+00,0.000000000000000e+00
	-2.118280939050782e-02,1.424837168762556e-09
	1.000000000000000e+00,0.000000000000000e+00
138		4.897788193684509e+00,0.000000000000000e+00
	-2.118280939050782e-02,1.441336005586045e-09
	1.000000000000000e+00,0.000000000000000e+00
139		4.954501908047950e+00,0.000000000000000e+00
	-2.118280939050782e-02,1.458025889935874e-09
	1.000000000000000e+00,0.000000000000000e+00
140		5.011872336272772e+00,0.000000000000000e+00
	-2.118280939050782e-02,1.474909034038134e-09
	1.000000000000000e+00,0.000000000000000e+00
141		5.069907082747093e+00,0.000000000000000e+00
	-2.118280939050782e-02,1.491987675735290e-09
	1.000000000000000e+00,0.000000000000000e+00
142		5.128613839913699e+00,0.000000000000000e+00
	-2.118280939050782e-02,1.509264078782799e-09
	1.000000000000000e+00,0.000000000000000e+00
143		5.188000389289662e+00,0.000000000000000e+00
	-2.118280939050782e-02,1.526740533149173e-09
	1.000000000000000e+00,0.000000000000000e+00
144		5.248074602497778e+00,0.000000000000000e+00
	-2.118280939050782e-02,1.544419355319507e-09
	1.000000000000000e+00,0.000000000000000e+00
145		5.308844442309936e+00,0.000000000000000e+00
	-2.118280939050782e-02,1.562302888602531e-09
	1.000000000000000e+00,0.000000000000000e+00
146		5.370317963702581e+00,0.000000000000000e+00
	-2.118280939050782e-02,1.580393503441211e-09
	1.000000000000000e+00,0.000000000000000e+00
147		5.432503314924387e+00,0.000000000000000e+00
	-2.118280939050782e-02,1.598693597726950e-09
	1.000000000000000e+00,0.000000000000000e+00
148		5.495408738576301e+00,0.000000000000000e+00
	-2.118280939050782e-02,1.617205597117422e-09
	1.000000000000000e+00,0.000000000000000e+00
149		5.559042572704092e+00,0.000000000000000e+00
	-2.118280939050782e-02,1.635931955358095e-09
	1.000000000000000e+00,0.000000000000000e+00
150		5.623413251903548e+00,0.000000000000000e+00
	-2.118280939050782e-02,1.654875154607471e-09
	1.000000000000000e+00,0.000000000000000e+00
151		5.688529308438473e+00,0.000000000000000e+00
	-2.118280939050782e-02,1.674037705766090e-09
	1.000000000000000e+00,0.000000000000000e+00
152		5.754399373371629e+00,0.000000000000000e+00
	-2.118280939050782e-02,1.693422148809354e-09
	1.000000000000000e+00,0.000000000000000e+00
153		5.821032177708775e+00,0.000000000000000e+00
	-2.118280939050782e-02,1.713031053124191e-09
	1.000000000000000e+00,0.000000000000000e+00
154		5.888436553555951e+00,0.000000000000000e+00
	-2.118280939050782e-02,1.732867017849629e-09
	1.000000000000000e+00,0.000000000000000e+00
155		5.956621435290167e+00,0.000000000000000e+00
	-2.118280939050782e-02,1.752932672221305e-09
	1.000000000000000e+00,0.000000000000000e+00
156		6.025595860743641e+00,0.000000000000000e+00
	-2.118280939050782e-02,1.773230675919974e-09
	1.000000000000000e+00,0.000000000000000e+00
157		6.095368972401756e+00,0.000000000000000e+00
	-2.118280939050782e-02,1.793763719424038e-09
	1.000000000000000e+00,0.000000000000000e+00
158		6.165950018614887e+00,0.000000000000000e+00
	-2.118280939050782e-02,1.814534524366174e-09
	1.000000000000000e+00,0.000000000000000e+00
159		6.237348354824259e+00,0.000000000000000e+00
	-2.118280939050782e-02,1.835545843894079e-09
	1.000000000000000e+00,0.000000000000000e+00
160		6.309573444802000e+00,0.000000000000000e+00
	-2.118280939050782e-02,1.856800463035398e-09
	1.000000000000000e+00,0.000000000000000e+00
161		6.382634861905555e+00,0.000000000000000e+00
	-2.118280939050782e-02,1.878301199066874e-09
	1.000000000000000e+00,0.000000000000000e+00
162		6.456542290346625e+00,0.000000000000000e+00
	-2.118280939050782e-02,1.900050901887782e-09
	1.000000000000000e+00,0.000000000000000e+00
163		6.531305526474794e+00,0.000000000000000e+00
	-2.118280939050782e-02,1.922052454397671e-09
	1.000000000000000e+00,0.000000000000000e+00
164		6.606934480076032e+00,0.000000000000000e+00
	-2.118280939050782e-02,1.944308772878494e-09
	1.000000000000000e+00,0.000000000000000e+00
165		6.683439175686219e+00,0.000000000000000e+00
	-2.118280939050782e-02,1.966822807381160e-09
	1.000000000000000e+00,0.000000000000000e+00
166		6.760829753919892e+00,0.000000000000000e+00
	-2.118280939050782e-02,1.989597542116555e-09
	1.000000000000000e+00,0.000000000000000e+00
167		6.839116472814369e+00,0.000000000000000e+00
	-2.118280939050782e-02,2.012635995851101e-09
	1.000000000000000e+00,0.000000000000000e+00
168		6.918309709189442e+00,0.000000000000000e+00
	-2.118280939050782e-02,2.035941222306884e-09
	1.000000000000000e+00,0.000000000000000e+00
169		6.998419960022813e+00,0.000000000000000e+00
	-2.118280939050782e-02,2.059516310566429e-09
	1.000000000000000e+00,0.000000000000000e+00
170		7.079457843841459e+00,0.000000000000000e+00
	-2.118280939050782e-02,2.083364385482148e-09
	1.000000000000000e+00,0.000000000000000e+00
171		7.161434102129101e+00,0.000000000000000e+00
	-2.118280939050782e-02,2.107488608090540e-09
	1.000000000000000e+00,0.000000000000000e+00
172		7.244359600749983e+00,0.000000000000000e+00
	-2.118280939050782e-02,2.131892176031182e-09
	1.000000000000000e+00,0.000000000000000e+00
173		7.328245331389125e+00,0.000000000000000e+00
	-2.118280939050782e-02,2.156578323970571e-09
	1.000000000000000e+00,0.000000000000000e+00
174		7.413102413009261e+00,0.000000000000000e+00
	-2.118280939050782e-02,2.181550324030877e-09
	1.000000000000000e+00,0.000000000000000e+00
175		7.498942093324645e+00,0.000000000000000e+00
	-2.118280939050782e-02,2.206811486223659e-09
	1.000000000000000e+00,0.000000000000000e+00
176		7.585775750291926e+00,0.000000000000000e+00
	-2.118280939050782e-02,2.232365158888604e-09
	1.000000000000000e+00,0.000000000000000e+00
177		7.673614893618280e+00,0.000000000000000e+00
	-2.118280939050782e-02,2.258214729137347e-09
	1.000000000000000e+00,0.000000000000000e+00
178		7.762471166287009e+00,0.000000000000000e+00
	-2.118280939050782e-02,2.284363623302422e-09
	1.000000000000000e+00,0.000000000000000e+00
179		7.852356346100811e+00,0.000000000000000e+00
	-2.118280939050782e-02,2.310815307391429e-09
	1.000000000000000e+00,0.000000000000000e+00
180		7.943282347242909e+00,0.000000000000000e+00
	-2.118280939050782e-02,2.337573287546441e-09
	1.000000000000000e+00,0.000000000000000e+00
181		8.035261221856269e+00,0.000000000000000e+00
	-2.118280939050782e-02,2.364641110508745e-09
	1.000000000000000e+00,0.000000000000000e+00
182		8.128305161641091e+00,0.000000000000000e+00
	-2.118280939050782e-02,2.392022364088958e-09
	1.000000000000000e+00,0.000000000000000e+00
183		8.222426499470812e+00,0.000000000000000e+00
	-2.118280939050782e-02,2.419720677642580e-09
	1.000000000000000e+00,0.000000000000000e+00
184		8.317637711026812e+00,0.000000000000000e+00
	-2.118280939050782e-02,2.447739722551073e-09
	1.000000000000000e+00,0.000000000000000e+00
185		8.413951416452054e+00,0.000000000000000e+00
	-2.118280939050782e-02,2.476083212708490e-09
	1.000000000000000e+00,0.000000000000000e+00
186		8.511380382023869e+00,0.000000000000000e+00
	-2.118280939050782e-02,2.504754905013751e-09
	1.000000000000000e+00,0.000000000000000e+00
187		8.609937521846113e+00,0.000000000000000e+00
	-2.118280939050782e-02,2.533758599868615e-09
	1.000000000000000e+00,0.000000000000000e+00
188		8.709635899560915e+00,0.000000000000000e+00
	-2.118280939050782e-02,2.563098141681418e-09
	1.000000000000000e+00,0.000000000000000e+00
189		8.810488730080252e+00,0.000000000000000e+00
	-2.118280939050782e-02,2.592777419376649e-09
	1.000000000000000e+00,0.000000000000000e+00
190		8.912509381337568e+00,0.000000000000000e+00
	-2.118280939050782e-02,2.622800366910419e-09
	1.000000000000000e+00,0.000000000000000e+00
191		9.015711376059683e+00,0.000000000000000e+00
	-2.118280939050782e-02,2.653170963791903e-09
	1.000000000000000e+00,0.000000000000000e+00
192		9.120108393559214e+00,0.000000000000000e+00
	-2.118280939050782e-02,2.683893235610823e-09
	1.000000000000000e+00,0.000000000000000e+00
193		9.225714271547750e+00,0.000000000000000e+00
	-2.118280939050782e-02,2.714971254571029e-09
	1.000000000000000e+00,0.000000000000000e+00
194		9.332543007970031e+00,0.000000000000000e+00
	-2.118280939050782e-02,2.746409140030275e-09
	1.000000000000000e+00,0.000000000000000e+00
195		9.440608762859357e+00,0.000000000000000e+00
	-2.118280939050782e-02,2.778211059046222e-09
	1.000000000000000e+00,0.000000000000000e+00
196		9.549925860214485e+00,0.000000000000000e+00
	-2.118280939050782e-02,2.810381226928792e-09
	1.000000000000000e+00,0.000000000000000e+00
197		9.660508789898261e+00,0.000000000000000e+00
	-2.118280939050782e-02,2.842923907798892e-09
	1.000000000000000e+00,0.000000000000000e+00
198		9.772372209558236e+00,0.000000000000000e+00
	-2.118280939050782e-02,2.875843415153622e-09
	1.000000000000000e+00,0.000000000000000e+00
199		9.885530946569521e+00,0.000000000000000e+00
	-2.118280939050782e-02,2.909144112438024e-09
	1.000000000000000e+00,0.000000000000000e+00
200		1.000000000000014e+01,0.000000000000000e+00
	-2.118280939050782e-02,2.942830413623453e-09
	1.000000000000000e+00,0.000000000000000e+00
201		1.011579454259912e+01,0.000000000000000e+00
	-2.118280939050782e-02,2.976906783792645e-09
	1.000000000000000e+00,0.000000000000000e+00
202		1.023292992280768e+01,0.000000000000000e+00
	-2.118280939050782e-02,3.011377739731553e-09
	1.000000000000000e+00,0.000000000000000e+00
203		1.035142166679358e+01,0.000000000000000e+00
	-2.118280939050782e-02,3.046247850528051e-09
	1.000000000000000e+00,0.000000000000000e+00
204		1.047128548050914e+01,0.000000000000000e+00
	-2.118280939050782e-02,3.081521738177555e-09
	1.000000000000000e+00,0.000000000000000e+00
205		1.059253725177304e+01,0.000000000000000e+00
	-2.118280939050782e-02,3.117204078195666e-09
	1.000000000000000e+00,0.000000000000000e+00
206		1.071519305237621e+01,0.000000000000000e+00
	-2.118280939050782e-02,3.153299600237902e-09
	1.000000000000000e+00,0.000000000000000e+00
207		1.083926914021219e+01,0.000000000000000e+00
	-2.118280939050782e-02,3.189813088726614e-09
	1.000000000000000e+00,0.000000000000000e+00
208		1.096478196143201e+01,0.000000000000000e+00
	-2.118280939050782e-02,3.226749383485150e-09
	1.000000000000000e+00,0.000000000000000e+00
209		1.109174815262417e+01,0.000000000000000e+00
	-2.118280939050782e-02,3.264113380379372e-09
	1.000000000000000e+00,0.000000000000000e+00
210		1.122018454301980e+01,0.000000000000000e+00
	-2.118280939050782e-02,3.301910031966598e-09
	1.000000000000000e+00,0.000000000000000e+00
211		1.135010815672332e+01,0.000000000000000e+00
	-2.118280939050782e-02,3.340144348152056e-09
	1.000000000000000e+00,0.000000000000000e+00