Title: * GA CMOS Amp | W=3.3860973137458085e-05 L=8.550759526048911e-07 Vbias=0.6418286296218443
Date: Mon Sep  8 20:15:48 2025
Plotname: AC Analysis
Flags: complex forward log nocompression
No. Variables: 3
No. Points:         1801
Offset:    0.0000000000000000e+00
Command: Linear Technology Corporation LTspice
Variables:
	0	frequency	frequency
	1	V(out)	voltage
	2	V(g)	voltage
Values:
0		1.000000000000000e+00,0.000000000000000e+00
	-1.065817849391884e-01,4.706554928863647e-10
	1.000000000000000e+00,0.000000000000000e+00
1		1.011579454259899e+00,0.000000000000000e+00
	-1.065817849391884e-01,4.761054266384123e-10
	1.000000000000000e+00,0.000000000000000e+00
2		1.023292992280754e+00,0.000000000000000e+00
	-1.065817849391884e-01,4.816184676490613e-10
	1.000000000000000e+00,0.000000000000000e+00
3		1.035142166679344e+00,0.000000000000000e+00
	-1.065817849391884e-01,4.871953466659261e-10
	1.000000000000000e+00,0.000000000000000e+00
4		1.047128548050900e+00,0.000000000000000e+00
	-1.065817849391884e-01,4.928368028982796e-10
	1.000000000000000e+00,0.000000000000000e+00
5		1.059253725177289e+00,0.000000000000000e+00
	-1.065817849391884e-01,4.985435841150349e-10
	1.000000000000000e+00,0.000000000000000e+00
6		1.071519305237607e+00,0.000000000000000e+00
	-1.065817849391884e-01,5.043164467438609e-10
	1.000000000000000e+00,0.000000000000000e+00
7		1.083926914021204e+00,0.000000000000000e+00
	-1.065817849391884e-01,5.101561559714459e-10
	1.000000000000000e+00,0.000000000000000e+00
8		1.096478196143186e+00,0.000000000000000e+00
	-1.065817849391884e-01,5.160634858449229e-10
	1.000000000000000e+00,0.000000000000000e+00
9		1.109174815262402e+00,0.000000000000000e+00
	-1.065817849391884e-01,5.220392193744681e-10
	1.000000000000000e+00,0.000000000000000e+00
10		1.122018454301964e+00,0.000000000000000e+00
	-1.065817849391884e-01,5.280841486370880e-10
	1.000000000000000e+00,0.000000000000000e+00
11		1.135010815672316e+00,0.000000000000000e+00
	-1.065817849391884e-01,5.341990748816086e-10
	1.000000000000000e+00,0.000000000000000e+00
12		1.148153621496884e+00,0.000000000000000e+00
	-1.065817849391884e-01,5.403848086348803e-10
	1.000000000000000e+00,0.000000000000000e+00
13		1.161448613840344e+00,0.000000000000000e+00
	-1.065817849391884e-01,5.466421698092120e-10
	1.000000000000000e+00,0.000000000000000e+00
14		1.174897554939531e+00,0.000000000000000e+00
	-1.065817849391884e-01,5.529719878110494e-10
	1.000000000000000e+00,0.000000000000000e+00
15		1.188502227437020e+00,0.000000000000000e+00
	-1.065817849391884e-01,5.593751016509127e-10
	1.000000000000000e+00,0.000000000000000e+00
16		1.202264434617414e+00,0.000000000000000e+00
	-1.065817849391884e-01,5.658523600546055e-10
	1.000000000000000e+00,0.000000000000000e+00
17		1.216186000646369e+00,0.000000000000000e+00
	-1.065817849391884e-01,5.724046215757135e-10
	1.000000000000000e+00,0.000000000000000e+00
18		1.230268770812383e+00,0.000000000000000e+00
	-1.065817849391884e-01,5.790327547094040e-10
	1.000000000000000e+00,0.000000000000000e+00
19		1.244514611771387e+00,0.000000000000000e+00
	-1.065817849391884e-01,5.857376380075447e-10
	1.000000000000000e+00,0.000000000000000e+00
20		1.258925411794169e+00,0.000000000000000e+00
	-1.065817849391884e-01,5.925201601951541e-10
	1.000000000000000e+00,0.000000000000000e+00
21		1.273503081016663e+00,0.000000000000000e+00
	-1.065817849391884e-01,5.993812202882016e-10
	1.000000000000000e+00,0.000000000000000e+00
22		1.288249551693136e+00,0.000000000000000e+00
	-1.065817849391884e-01,6.063217277127710e-10
	1.000000000000000e+00,0.000000000000000e+00
23		1.303166778452301e+00,0.000000000000000e+00
	-1.065817849391884e-01,6.133426024256038e-10
	1.000000000000000e+00,0.000000000000000e+00
24		1.318256738556409e+00,0.000000000000000e+00
	-1.065817849391884e-01,6.204447750360383e-10
	1.000000000000000e+00,0.000000000000000e+00
25		1.333521432163326e+00,0.000000000000000e+00
	-1.065817849391884e-01,6.276291869293612e-10
	1.000000000000000e+00,0.000000000000000e+00
26		1.348962882591656e+00,0.000000000000000e+00
	-1.065817849391884e-01,6.348967903915870e-10
	1.000000000000000e+00,0.000000000000000e+00
27		1.364583136588927e+00,0.000000000000000e+00
	-1.065817849391884e-01,6.422485487356827e-10
	1.000000000000000e+00,0.000000000000000e+00
28		1.380384264602887e+00,0.000000000000000e+00
	-1.065817849391884e-01,6.496854364292540e-10
	1.000000000000000e+00,0.000000000000000e+00
29		1.396368361055940e+00,0.000000000000000e+00
	-1.065817849391884e-01,6.572084392237088e-10
	1.000000000000000e+00,0.000000000000000e+00
30		1.412537544622757e+00,0.000000000000000e+00
	-1.065817849391884e-01,6.648185542849190e-10
	1.000000000000000e+00,0.000000000000000e+00
31		1.428893958511106e+00,0.000000000000000e+00
	-1.065817849391884e-01,6.725167903253931e-10
	1.000000000000000e+00,0.000000000000000e+00
32		1.445439770745931e+00,0.000000000000000e+00
	-1.065817849391884e-01,6.803041677379798e-10
	1.000000000000000e+00,0.000000000000000e+00
33		1.462177174456721e+00,0.000000000000000e+00
	-1.065817849391884e-01,6.881817187311201e-10
	1.000000000000000e+00,0.000000000000000e+00
34		1.479108388168211e+00,0.000000000000000e+00
	-1.065817849391884e-01,6.961504874656655e-10
	1.000000000000000e+00,0.000000000000000e+00
35		1.496235656094437e+00,0.000000000000000e+00
	-1.065817849391884e-01,7.042115301932805e-10
	1.000000000000000e+00,0.000000000000000e+00
36		1.513561248436212e+00,0.000000000000000e+00
	-1.065817849391884e-01,7.123659153964467e-10
	1.000000000000000e+00,0.000000000000000e+00
37		1.531087461682034e+00,0.000000000000000e+00
	-1.065817849391884e-01,7.206147239300905e-10
	1.000000000000000e+00,0.000000000000000e+00
38		1.548816618912485e+00,0.000000000000000e+00
	-1.065817849391884e-01,7.289590491648485e-10
	1.000000000000000e+00,0.000000000000000e+00
39		1.566751070108153e+00,0.000000000000000e+00
	-1.065817849391884e-01,7.373999971319921e-10
	1.000000000000000e+00,0.000000000000000e+00
40		1.584893192461118e+00,0.000000000000000e+00
	-1.065817849391884e-01,7.459386866700315e-10
	1.000000000000000e+00,0.000000000000000e+00
41		1.603245390690046e+00,0.000000000000000e+00
	-1.065817849391884e-01,7.545762495730156e-10
	1.000000000000000e+00,0.000000000000000e+00
42		1.621810097358934e+00,0.000000000000000e+00
	-1.065817849391884e-01,7.633138307405523e-10
	1.000000000000000e+00,0.000000000000000e+00
43		1.640589773199544e+00,0.000000000000000e+00
	-1.065817849391884e-01,7.721525883295605e-10
	1.000000000000000e+00,0.000000000000000e+00
44		1.659586907437565e+00,0.000000000000000e+00
	-1.065817849391884e-01,7.810936939077848e-10
	1.000000000000000e+00,0.000000000000000e+00
45		1.678804018122565e+00,0.000000000000000e+00
	-1.065817849391884e-01,7.901383326090853e-10
	1.000000000000000e+00,0.000000000000000e+00
46		1.698243652461749e+00,0.000000000000000e+00
	-1.065817849391884e-01,7.992877032905248e-10
	1.000000000000000e+00,0.000000000000000e+00
47		1.717908387157593e+00,0.000000000000000e+00
	-1.065817849391884e-01,8.085430186912769e-10
	1.000000000000000e+00,0.000000000000000e+00
48		1.737800828749381e+00,0.000000000000000e+00
	-1.065817849391884e-01,8.179055055933727e-10
	1.000000000000000e+00,0.000000000000000e+00
49		1.757923613958698e+00,0.000000000000000e+00
	-1.065817849391884e-01,8.273764049843106e-10
	1.000000000000000e+00,0.000000000000000e+00
50		1.778279410038929e+00,0.000000000000000e+00
	-1.065817849391884e-01,8.369569722215457e-10
	1.000000000000000e+00,0.000000000000000e+00
51		1.798870915128794e+00,0.000000000000000e+00
	-1.065817849391884e-01,8.466484771988882e-10
	1.000000000000000e+00,0.000000000000000e+00
52		1.819700858609990e+00,0.000000000000000e+00
	-1.065817849391884e-01,8.564522045148257e-10
	1.000000000000000e+00,0.000000000000000e+00
53		1.840772001468962e+00,0.000000000000000e+00
	-1.065817849391884e-01,8.663694536427941e-10
	1.000000000000000e+00,0.000000000000000e+00
54		1.862087136662874e+00,0.000000000000000e+00
	-1.065817849391884e-01,8.764015391034243e-10
	1.000000000000000e+00,0.000000000000000e+00
55		1.883649089489807e+00,0.000000000000000e+00
	-1.065817849391884e-01,8.865497906387773e-10
	1.000000000000000e+00,0.000000000000000e+00
56		1.905460717963254e+00,0.000000000000000e+00
	-1.065817849391884e-01,8.968155533886016e-10
	1.000000000000000e+00,0.000000000000000e+00
57		1.927524913190943e+00,0.000000000000000e+00
	-1.065817849391884e-01,9.072001880686306e-10
	1.000000000000000e+00,0.000000000000000e+00
58		1.949844599758053e+00,0.000000000000000e+00
	-1.065817849391884e-01,9.177050711509427e-10
	1.000000000000000e+00,0.000000000000000e+00
59		1.972422736114861e+00,0.000000000000000e+00
	-1.065817849391884e-01,9.283315950464120e-10
	1.000000000000000e+00,0.000000000000000e+00
60		1.995262314968888e+00,0.000000000000000e+00
	-1.065817849391884e-01,9.390811682892706e-10
	1.000000000000000e+00,0.000000000000000e+00
61		2.018366363681569e+00,0.000000000000000e+00
	-1.065817849391884e-01,9.499552157238085e-10
	1.000000000000000e+00,0.000000000000000e+00
62		2.041737944669538e+00,0.000000000000000e+00
	-1.065817849391884e-01,9.609551786932343e-10
	1.000000000000000e+00,0.000000000000000e+00
63		2.065380155810538e+00,0.000000000000000e+00
	-1.065817849391884e-01,9.720825152307254e-10
	1.000000000000000e+00,0.000000000000000e+00
64		2.089296130854049e+00,0.000000000000000e+00
	-1.065817849391884e-01,9.833387002526870e-10
	1.000000000000000e+00,0.000000000000000e+00
65		2.113489039836656e+00,0.000000000000000e+00
	-1.065817849391884e-01,9.947252257542509e-10
	1.000000000000000e+00,0.000000000000000e+00
66		2.137962089502242e+00,0.000000000000000e+00
	-1.065817849391884e-01,1.006243601007039e-09
	1.000000000000000e+00,0.000000000000000e+00
67		2.162718523727030e+00,0.000000000000000e+00
	-1.065817849391884e-01,1.017895352759216e-09
	1.000000000000000e+00,0.000000000000000e+00
68		2.187761623949563e+00,0.000000000000000e+00
	-1.065817849391884e-01,1.029682025437855e-09
	1.000000000000000e+00,0.000000000000000e+00
69		2.213094709605648e+00,0.000000000000000e+00
	-1.065817849391884e-01,1.041605181353652e-09
	1.000000000000000e+00,0.000000000000000e+00
70		2.238721138568351e+00,0.000000000000000e+00
	-1.065817849391884e-01,1.053666400908010e-09
	1.000000000000000e+00,0.000000000000000e+00
71		2.264644307593071e+00,0.000000000000000e+00
	-1.065817849391884e-01,1.065867282802516e-09
	1.000000000000000e+00,0.000000000000000e+00
72		2.290867652767784e+00,0.000000000000000e+00
	-1.065817849391884e-01,1.078209444250851e-09
	1.000000000000000e+00,0.000000000000000e+00
73		2.317394649968490e+00,0.000000000000000e+00
	-1.065817849391884e-01,1.090694521193144e-09
	1.000000000000000e+00,0.000000000000000e+00
74		2.344228815319934e+00,0.000000000000000e+00
	-1.065817849391884e-01,1.103324168512822e-09
	1.000000000000000e+00,0.000000000000000e+00
75		2.371373705661667e+00,0.000000000000000e+00
	-1.065817849391884e-01,1.116100060255957e-09
	1.000000000000000e+00,0.000000000000000e+00
76		2.398832919019502e+00,0.000000000000000e+00
	-1.065817849391884e-01,1.129023889853161e-09
	1.000000000000000e+00,0.000000000000000e+00
77		2.426610095082428e+00,0.000000000000000e+00
	-1.065817849391884e-01,1.142097370344048e-09
	1.000000000000000e+00,0.000000000000000e+00
78		2.454708915685043e+00,0.000000000000000e+00
	-1.065817849391884e-01,1.155322234604298e-09
	1.000000000000000e+00,0.000000000000000e+00
79		2.483133105295583e+00,0.000000000000000e+00
	-1.065817849391884e-01,1.168700235575342e-09
	1.000000000000000e+00,0.000000000000000e+00
80		2.511886431509593e+00,0.000000000000000e+00
	-1.065817849391884e-01,1.182233146496719e-09
	1.000000000000000e+00,0.000000000000000e+00
81		2.540972705549319e+00,0.000000000000000e+00
	-1.065817849391884e-01,1.195922761141114e-09
	1.000000000000000e+00,0.000000000000000e+00
82		2.570395782768878e+00,0.000000000000000e+00
	-1.065817849391884e-01,1.209770894052119e-09
	1.000000000000000e+00,0.000000000000000e+00
83		2.600159563165286e+00,0.000000000000000e+00
	-1.065817849391884e-01,1.223779380784752e-09
	1.000000000000000e+00,0.000000000000000e+00
84		2.630267991895396e+00,0.000000000000000e+00
	-1.065817849391884e-01,1.237950078148756e-09
	1.000000000000000e+00,0.000000000000000e+00
85		2.660725059798824e+00,0.000000000000000e+00
	-1.065817849391884e-01,1.252284864454718e-09
	1.000000000000000e+00,0.000000000000000e+00
86		2.691534803926931e+00,0.000000000000000e+00
	-1.065817849391884e-01,1.266785639763034e-09
	1.000000000000000e+00,0.000000000000000e+00
87		2.722701308077928e+00,0.000000000000000e+00
	-1.065817849391884e-01,1.281454326135767e-09
	1.000000000000000e+00,0.000000000000000e+00
88		2.754228703338182e+00,0.000000000000000e+00
	-1.065817849391884e-01,1.296292867891405e-09
	1.000000000000000e+00,0.000000000000000e+00
89		2.786121168629787e+00,0.000000000000000e+00
	-1.065817849391884e-01,1.311303231862586e-09
	1.000000000000000e+00,0.000000000000000e+00
90		2.818382931264471e+00,0.000000000000000e+00
	-1.065817849391884e-01,1.326487407656797e-09
	1.000000000000000e+00,0.000000000000000e+00
91		2.851018267503926e+00,0.000000000000000e+00
	-1.065817849391884e-01,1.341847407920090e-09
	1.000000000000000e+00,0.000000000000000e+00
92		2.884031503126623e+00,0.000000000000000e+00
	-1.065817849391884e-01,1.357385268603864e-09
	1.000000000000000e+00,0.000000000000000e+00
93		2.917427014001185e+00,0.000000000000000e+00
	-1.065817849391884e-01,1.373103049234723e-09
	1.000000000000000e+00,0.000000000000000e+00
94		2.951209226666404e+00,0.000000000000000e+00
	-1.065817849391884e-01,1.389002833187463e-09
	1.000000000000000e+00,0.000000000000000e+00
95		2.985382618917978e+00,0.000000000000000e+00
	-1.065817849391884e-01,1.405086727961227e-09
	1.000000000000000e+00,0.000000000000000e+00
96		3.019951720402035e+00,0.000000000000000e+00
	-1.065817849391884e-01,1.421356865458844e-09
	1.000000000000000e+00,0.000000000000000e+00
97		3.054921113215533e+00,0.000000000000000e+00
	-1.065817849391884e-01,1.437815402269418e-09
	1.000000000000000e+00,0.000000000000000e+00
98		3.090295432513610e+00,0.000000000000000e+00
	-1.065817849391884e-01,1.454464519954175e-09
	1.000000000000000e+00,0.000000000000000e+00
99		3.126079367123975e+00,0.000000000000000e+00
	-1.065817849391884e-01,1.471306425335629e-09
	1.000000000000000e+00,0.000000000000000e+00
100		3.162277660168400e+00,0.000000000000000e+00
	-1.065817849391884e-01,1.488343350790098e-09
	1.000000000000000e+00,0.000000000000000e+00
101		3.198895109691419e+00,0.000000000000000e+00
	-1.065817849391884e-01,1.505577554543597e-09
	1.000000000000000e+00,0.000000000000000e+00
102		3.235936569296304e+00,0.000000000000000e+00
	-1.065817849391884e-01,1.523011320971164e-09
	1.000000000000000e+00,0.000000000000000e+00
103		3.273406948788404e+00,0.000000000000000e+00
	-1.065817849391884e-01,1.540646960899657e-09
	1.000000000000000e+00,0.000000000000000e+00
104		3.311311214825934e+00,0.000000000000000e+00
	-1.065817849391884e-01,1.558486811914047e-09
	1.000000000000000e+00,0.000000000000000e+00
105		3.349654391578300e+00,0.000000000000000e+00
	-1.065817849391884e-01,1.576533238667261e-09
	1.000000000000000e+00,0.000000000000000e+00
106		3.388441561392050e+00,0.000000000000000e+00
	-1.065817849391884e-01,1.594788633193618e-09
	1.000000000000000e+00,0.000000000000000e+00
107		3.427677865464528e+00,0.000000000000000e+00
	-1.065817849391884e-01,1.613255415225890e-09
	1.000000000000000e+00,0.000000000000000e+00
108		3.467368504525342e+00,0.000000000000000e+00
	-1.065817849391884e-01,1.631936032516031e-09
	1.000000000000000e+00,0.000000000000000e+00
109		3.507518739525706e+00,0.000000000000000e+00
	-1.065817849391884e-01,1.650832961159631e-09
	1.000000000000000e+00,0.000000000000000e+00
110		3.548133892335781e+00,0.000000000000000e+00
	-1.065817849391884e-01,1.669948705924112e-09
	1.000000000000000e+00,0.000000000000000e+00
111		3.589219346450079e+00,0.000000000000000e+00
	-1.065817849391884e-01,1.689285800580737e-09
	1.000000000000000e+00,0.000000000000000e+00
112		3.630780547701041e+00,0.000000000000000e+00
	-1.065817849391884e-01,1.708846808240458e-09
	1.000000000000000e+00,0.000000000000000e+00
113		3.672823004980875e+00,0.000000000000000e+00
	-1.065817849391884e-01,1.728634321693652e-09
	1.000000000000000e+00,0.000000000000000e+00
114		3.715352290971754e+00,0.000000000000000e+00
	-1.065817849391884e-01,1.748650963753795e-09
	1.000000000000000e+00,0.000000000000000e+00
115		3.758374042884471e+00,0.000000000000000e+00
	-1.065817849391884e-01,1.768899387605110e-09
	1.000000000000000e+00,0.000000000000000e+00
116		3.801893963205642e+00,0.000000000000000e+00
	-1.065817849391884e-01,1.789382277154246e-09
	1.000000000000000e+00,0.000000000000000e+00
117		3.845917820453566e+00,0.000000000000000e+00
	-1.065817849391884e-01,1.810102347386026e-09
	1.000000000000000e+00,0.000000000000000e+00
118		3.890451449942837e+00,0.000000000000000e+00
	-1.065817849391884e-01,1.831062344723318e-09
	1.000000000000000e+00,0.000000000000000e+00
119		3.935500754557806e+00,0.000000000000000e+00
	-1.065817849391884e-01,1.852265047391064e-09
	1.000000000000000e+00,0.000000000000000e+00
120		3.981071705535005e+00,0.000000000000000e+00
	-1.065817849391884e-01,1.873713265784538e-09
	1.000000000000000e+00,0.000000000000000e+00
121		4.027170343254624e+00,0.000000000000000e+00
	-1.065817849391884e-01,1.895409842841855e-09
	1.000000000000000e+00,0.000000000000000e+00
122		4.073802778041161e+00,0.000000000000000e+00
	-1.065817849391884e-01,1.917357654420804e-09
	1.000000000000000e+00,0.000000000000000e+00
123		4.120975190973336e+00,0.000000000000000e+00
	-1.065817849391884e-01,1.939559609680036e-09
	1.000000000000000e+00,0.000000000000000e+00
124		4.168693834703389e+00,0.000000000000000e+00
	-1.065817849391884e-01,1.962018651464673e-09
	1.000000000000000e+00,0.000000000000000e+00
125		4.216965034285859e+00,0.000000000000000e+00
	-1.065817849391884e-01,1.984737756696377e-09
	1.000000000000000e+00,0.000000000000000e+00
126		4.265795188015963e+00,0.000000000000000e+00
	-1.065817849391884e-01,2.007719936767936e-09
	1.000000000000000e+00,0.000000000000000e+00
127		4.315190768277690e+00,0.000000000000000e+00
	-1.065817849391884e-01,2.030968237942426e-09
	1.000000000000000e+00,0.000000000000000e+00
128		4.365158322401698e+00,0.000000000000000e+00
	-1.065817849391884e-01,2.054485741756988e-09
	1.000000000000000e+00,0.000000000000000e+00
129		4.415704473533165e+00,0.000000000000000e+00
	-1.065817849391884e-01,2.078275565431277e-09
	1.000000000000000e+00,0.000000000000000e+00
130		4.466835921509672e+00,0.000000000000000e+00
	-1.065817849391884e-01,2.102340862280653e-09
	1.000000000000000e+00,0.000000000000000e+00
131		4.518559443749265e+00,0.000000000000000e+00
	-1.065817849391884e-01,2.126684822134148e-09
	1.000000000000000e+00,0.000000000000000e+00
132		4.570881896148792e+00,0.000000000000000e+00
	-1.065817849391884e-01,2.151310671757271e-09
	1.000000000000000e+00,0.000000000000000e+00
133		4.623810213992646e+00,0.000000000000000e+00
	-1.065817849391884e-01,2.176221675279716e-09
	1.000000000000000e+00,0.000000000000000e+00
134		4.677351412872025e+00,0.000000000000000e+00
	-1.065817849391884e-01,2.201421134628017e-09
	1.000000000000000e+00,0.000000000000000e+00
135		4.731512589614849e+00,0.000000000000000e+00
	-1.065817849391884e-01,2.226912389963216e-09
	1.000000000000000e+00,0.000000000000000e+00
136		4.786300923226428e+00,0.000000000000000e+00
	-1.065817849391884e-01,2.252698820123597e-09
	1.000000000000000e+00,0.000000000000000e+00
137		4.841723675841039e+00,0.000000000000000e+00
	-1.065817849391884e-01,2.278783843072545e-09
	1.000000000000000e+00,0.000000000000000e+00
138		4.897788193684509e+00,0.000000000000000e+00
	-1.065817849391884e-01,2.305170916351600e-09
	1.000000000000000e+00,0.000000000000000e+00
139		4.954501908047950e+00,0.000000000000000e+00
	-1.065817849391884e-01,2.331863537538742e-09
	1.000000000000000e+00,0.000000000000000e+00
140		5.011872336272772e+00,0.000000000000000e+00
	-1.065817849391884e-01,2.358865244711997e-09
	1.000000000000000e+00,0.000000000000000e+00
141		5.069907082747093e+00,0.000000000000000e+00
	-1.065817849391884e-01,2.386179616918404e-09
	1.000000000000000e+00,0.000000000000000e+00
142		5.128613839913699e+00,0.000000000000000e+00
	-1.065817849391884e-01,2.413810274648414e-09
	1.000000000000000e+00,0.000000000000000e+00
143		5.188000389289662e+00,0.000000000000000e+00
	-1.065817849391884e-01,2.441760880315778e-09
	1.000000000000000e+00,0.000000000000000e+00
144		5.248074602497778e+00,0.000000000000000e+00
	-1.065817849391884e-01,2.470035138743004e-09
	1.000000000000000e+00,0.000000000000000e+00
145		5.308844442309936e+00,0.000000000000000e+00
	-1.065817849391884e-01,2.498636797652420e-09
	1.000000000000000e+00,0.000000000000000e+00
146		5.370317963702581e+00,0.000000000000000e+00
	-1.065817849391884e-01,2.527569648162936e-09
	1.000000000000000e+00,0.000000000000000e+00
147		5.432503314924387e+00,0.000000000000000e+00
	-1.065817849391884e-01,2.556837525292547e-09
	1.000000000000000e+00,0.000000000000000e+00
148		5.495408738576301e+00,0.000000000000000e+00
	-1.065817849391884e-01,2.586444308466664e-09
	1.000000000000000e+00,0.000000000000000e+00
149		5.559042572704092e+00,0.000000000000000e+00
	-1.065817849391884e-01,2.616393922032329e-09
	1.000000000000000e+00,0.000000000000000e+00
150		5.623413251903548e+00,0.000000000000000e+00
	-1.065817849391884e-01,2.646690335778379e-09
	1.000000000000000e+00,0.000000000000000e+00
151		5.688529308438473e+00,0.000000000000000e+00
	-1.065817849391884e-01,2.677337565461640e-09
	1.000000000000000e+00,0.000000000000000e+00
152		5.754399373371629e+00,0.000000000000000e+00
	-1.065817849391884e-01,2.708339673339212e-09
	1.000000000000000e+00,0.000000000000000e+00
153		5.821032177708775e+00,0.000000000000000e+00
	-1.065817849391884e-01,2.739700768706911e-09
	1.000000000000000e+00,0.000000000000000e+00
154		5.888436553555951e+00,0.000000000000000e+00
	-1.065817849391884e-01,2.771425008443962e-09
	1.000000000000000e+00,0.000000000000000e+00
155		5.956621435290167e+00,0.000000000000000e+00
	-1.065817849391884e-01,2.803516597563978e-09
	1.000000000000000e+00,0.000000000000000e+00
156		6.025595860743641e+00,0.000000000000000e+00
	-1.065817849391884e-01,2.835979789772337e-09
	1.000000000000000e+00,0.000000000000000e+00
157		6.095368972401756e+00,0.000000000000000e+00
	-1.065817849391884e-01,2.868818888030003e-09
	1.000000000000000e+00,0.000000000000000e+00
158		6.165950018614887e+00,0.000000000000000e+00
	-1.065817849391884e-01,2.902038245123879e-09
	1.000000000000000e+00,0.000000000000000e+00
159		6.237348354824259e+00,0.000000000000000e+00
	-1.065817849391884e-01,2.935642264243767e-09
	1.000000000000000e+00,0.000000000000000e+00
160		6.309573444802000e+00,0.000000000000000e+00
	-1.065817849391884e-01,2.969635399566003e-09
	1.000000000000000e+00,0.000000000000000e+00
161		6.382634861905555e+00,0.000000000000000e+00
	-1.065817849391884e-01,3.004022156843853e-09
	1.000000000000000e+00,0.000000000000000e+00
162		6.456542290346625e+00,0.000000000000000e+00
	-1.065817849391884e-01,3.038807094004748e-09
	1.000000000000000e+00,0.000000000000000e+00
163		6.531305526474794e+00,0.000000000000000e+00
	-1.065817849391884e-01,3.073994821754431e-09
	1.000000000000000e+00,0.000000000000000e+00
164		6.606934480076032e+00,0.000000000000000e+00
	-1.065817849391884e-01,3.109590004188102e-09
	1.000000000000000e+00,0.000000000000000e+00
165		6.683439175686219e+00,0.000000000000000e+00
	-1.065817849391884e-01,3.145597359408636e-09
	1.000000000000000e+00,0.000000000000000e+00
166		6.760829753919892e+00,0.000000000000000e+00
	-1.065817849391884e-01,3.182021660151966e-09
	1.000000000000000e+00,0.000000000000000e+00
167		6.839116472814369e+00,0.000000000000000e+00
	-1.065817849391884e-01,3.218867734419702e-09
	1.000000000000000e+00,0.000000000000000e+00
168		6.918309709189442e+00,0.000000000000000e+00
	-1.065817849391884e-01,3.256140466119079e-09
	1.000000000000000e+00,0.000000000000000e+00
169		6.998419960022813e+00,0.000000000000000e+00
	-1.065817849391884e-01,3.293844795710309e-09
	1.000000000000000e+00,0.000000000000000e+00
170		7.079457843841459e+00,0.000000000000000e+00
	-1.065817849391884e-01,3.331985720861442e-09
	1.000000000000000e+00,0.000000000000000e+00
171		7.161434102129101e+00,0.000000000000000e+00
	-1.065817849391884e-01,3.370568297110792e-09
	1.000000000000000e+00,0.000000000000000e+00
172		7.244359600749983e+00,0.000000000000000e+00
	-1.065817849391884e-01,3.409597638537051e-09
	1.000000000000000e+00,0.000000000000000e+00
173		7.328245331389125e+00,0.000000000000000e+00
	-1.065817849391884e-01,3.449078918437149e-09
	1.000000000000000e+00,0.000000000000000e+00
174		7.413102413009261e+00,0.000000000000000e+00
	-1.065817849391884e-01,3.489017370011973e-09
	1.000000000000000e+00,0.000000000000000e+00
175		7.498942093324645e+00,0.000000000000000e+00
	-1.065817849391884e-01,3.529418287060018e-09
	1.000000000000000e+00,0.000000000000000e+00
176		7.585775750291926e+00,0.000000000000000e+00
	-1.065817849391884e-01,3.570287024679079e-09
	1.000000000000000e+00,0.000000000000000e+00
177		7.673614893618280e+00,0.000000000000000e+00
	-1.065817849391884e-01,3.611628999976060e-09
	1.000000000000000e+00,0.000000000000000e+00
178		7.762471166287009e+00,0.000000000000000e+00
	-1.065817849391884e-01,3.653449692785006e-09
	1.000000000000000e+00,0.000000000000000e+00
179		7.852356346100811e+00,0.000000000000000e+00
	-1.065817849391884e-01,3.695754646393450e-09
	1.000000000000000e+00,0.000000000000000e+00
180		7.943282347242909e+00,0.000000000000000e+00
	-1.065817849391884e-01,3.738549468277170e-09
	1.000000000000000e+00,0.000000000000000e+00
181		8.035261221856269e+00,0.000000000000000e+00
	-1.065817849391884e-01,3.781839830843455e-09
	1.000000000000000e+00,0.000000000000000e+00
182		8.128305161641091e+00,0.000000000000000e+00
	-1.065817849391884e-01,3.825631472182970e-09
	1.000000000000000e+00,0.000000000000000e+00
183		8.222426499470812e+00,0.000000000000000e+00
	-1.065817849391884e-01,3.869930196830341e-09
	1.000000000000000e+00,0.000000000000000e+00
184		8.317637711026812e+00,0.000000000000000e+00
	-1.065817849391884e-01,3.914741876533538e-09
	1.000000000000000e+00,0.000000000000000e+00
185		8.413951416452054e+00,0.000000000000000e+00
	-1.065817849391884e-01,3.960072451032167e-09
	1.000000000000000e+00,0.000000000000000e+00
186		8.511380382023869e+00,0.000000000000000e+00
	-1.065817849391884e-01,4.005927928844779e-09
	1.000000000000000e+00,0.000000000000000e+00
187		8.609937521846113e+00,0.000000000000000e+00
	-1.065817849391884e-01,4.052314388065287e-09
	1.000000000000000e+00,0.000000000000000e+00
188		8.709635899560915e+00,0.000000000000000e+00
	-1.065817849391884e-01,4.099237977168618e-09
	1.000000000000000e+00,0.000000000000000e+00
189		8.810488730080252e+00,0.000000000000000e+00
	-1.065817849391884e-01,4.146704915825681e-09
	1.000000000000000e+00,0.000000000000000e+00
190		8.912509381337568e+00,0.000000000000000e+00
	-1.065817849391884e-01,4.194721495727781e-09
	1.000000000000000e+00,0.000000000000000e+00
191		9.015711376059683e+00,0.000000000000000e+00
	-1.065817849391884e-01,4.243294081420574e-09
	1.000000000000000e+00,0.000000000000000e+00
192		9.120108393559214e+00,0.000000000000000e+00
	-1.065817849391884e-01,4.292429111147683e-09
	1.000000000000000e+00,0.000000000000000e+00
193		9.225714271547750e+00,0.000000000000000e+00
	-1.065817849391884e-01,4.342133097704074e-09
	1.000000000000000e+00,0.000000000000000e+00
194		9.332543007970031e+00,0.000000000000000e+00
	-1.065817849391884e-01,4.392412629299331e-09
	1.000000000000000e+00,0.000000000000000e+00
195		9.440608762859357e+00,0.000000000000000e+00
	-1.065817849391884e-01,4.443274370430904e-09
	1.000000000000000e+00,0.000000000000000e+00
196		9.549925860214485e+00,0.000000000000000e+00
	-1.065817849391884e-01,4.494725062767488e-09
	1.000000000000000e+00,0.000000000000000e+00
197		9.660508789898261e+00,0.000000000000000e+00
	-1.065817849391884e-01,4.546771526042624e-09
	1.000000000000000e+00,0.000000000000000e+00
198		9.772372209558236e+00,0.000000000000000e+00
	-1.065817849391884e-01,4.599420658958644e-09
	1.000000000000000e+00,0.000000000000000e+00
199		9.885530946569521e+00,0.000000000000000e+00
	-1.065817849391884e-01,4.652679440101088e-09
	1.000000000000000e+00,0.000000000000000e+00
200		1.000000000000014e+01,0.000000000000000e+00
	-1.065817849391884e-01,4.706554928863710e-09
	1.000000000000000e+00,0.000000000000000e+00
201		1.011579454259912e+01,0.000000000000000e+00
	-1.065817849391884e-01,4.761054266384188e-09
	1.000000000000000e+00,0.000000000000000e+00
202		1.023292992280768e+01,0.000000000000000e+00
	-1.065817849391884e-01,4.816184676490678e-09
	1.000000000000000e+00,0.000000000000000e+00
203		1.035142166679358e+01,0.000000000000000e+00
	-1.065817849391884e-01,4.871953466659326e-09
	1.000000000000000e+00,0.000000000000000e+00
204		1.047128548050914e+01,0.000000000000000e+00
	-1.065817849391884e-01,4.928368028982863e-09
	1.000000000000000e+00,0.000000000000000e+00
205		1.059253725177304e+01,0.000000000000000e+00
	-1.065817849391884e-01,4.985435841150417e-09
	1.000000000000000e+00,0.000000000000000e+00
206		1.071519305237621e+01,0.000000000000000e+00
	-1.065817849391884e-01,5.043164467438677e-09
	1.000000000000000e+00,0.000000000000000e+00
207		1.083926914021219e+01,0.000000000000000e+00
	-1.065817849391884e-01,5.101561559714529e-09
	1.000000000000000e+00,0.000000000000000e+00
208		1.096478196143201e+01,0.000000000000000e+00
	-1.065817849391884e-01,5.160634858449302e-09
	1.000000000000000e+00,0.000000000000000e+00
209		1.109174815262417e+01,0.000000000000000e+00
	-1.065817849391884e-01,5.220392193744754e-09
	1.000000000000000e+00,0.000000000000000e+00
210		1.122018454301980e+01,0.000000000000000e+00
	-1.065817849391884e-01,5.280841486370951e-09
	1.000000000000000e+00,0.000000000000000e+00
211		1.135010815672332e+01,0.000000000000000e+00
	-1.065817849391884e-01,5.341990748816159e-09
	1.000000000000000e+00,0.000000000000000e+00