Title: * Amplificador CMOS – W=3.587568104869191e-05 L=1.666423635111185e-06 Vbias=0.8863216036472559
Date: Wed Jul 30 16:10:48 2025
Plotname: Operating Point
Flags: real
No. Variables: 12
No. Points:            1
Offset:    0.0000000000000000e+00
Command: Linear Technology Corporation LTspice
Variables:
	0	V(out)	voltage
	1	V(in)	voltage
	2	V(bias)	voltage
	3	V(vdd)	voltage
	4	Id(M1)	device_current
	5	Ig(M1)	device_current
	6	Ib(M1)	device_current
	7	Is(M1)	device_current
	8	I(Rload)	device_current
	9	I(Vbias)	device_current
	10	I(Vin)	device_current
	11	I(Vdd)	device_current
Values:
0		1.799999972763217e+00
	0.000000000000000e+00
	8.863216036472559e-01
	1.800000000000000e+00
	2.723678341879177e-12
	0.000000000000000e+00
	-2.706321576410473e-12
	-1.735676546870435e-14
	-2.723678349525472e-12
	1.735676546870496e-14
	0.000000000000000e+00
	-2.723678352084188e-12
