Title: * GA CMOS Amp | W=5e-05 L=7.706941773431628e-07 Vbias=1.5
Date: Sat Sep  6 22:08:58 2025
Plotname: AC Analysis
Flags: complex forward log
No. Variables: 13
No. Points:          901
Offset:    0.0000000000000000e+00
Command: Linear Technology Corporation LTspice
Variables:
	0	frequency	frequency
	1	V(out)	voltage
	2	V(g)	voltage
	3	V(vdd)	voltage
	4	V(m1#dbody)	voltage
	5	V(m1#sbody)	voltage
	6	Id(M1)	device_current
	7	Ig(M1)	device_current
	8	Ib(M1)	device_current
	9	Is(M1)	device_current
	10	I(Rload)	device_current
	11	I(Vg)	device_current
	12	I(Vdd)	device_current
Values:
0		1.000000000000000e+00,0.000000000000000e+00
	1.545040153441894e-02,8.148751437945463e-10
	1.000000000000000e+00,0.000000000000000e+00
	0.000000000000000e+00,0.000000000000000e+00
	1.386049845738811e-03,7.337598922504646e-14
	1.386049845608609e-03,5.436236495239506e-14
	-1.545040153441877e-06,-8.148751437945539e-14
	8.612375249444039e-04,9.974051140306278e-12
	-7.392265848927403e-04,-3.130595505923391e-14
	-1.204658998982217e-04,-9.861257670867588e-12
	1.545040153441894e-06,8.148751437945464e-14
	-8.612375249444221e-04,-9.974051140306277e-12
	1.545040153441894e-06,8.148751437945464e-14
1		1.023292992280754e+00,0.000000000000000e+00
	1.545040153441894e-02,8.338560242287311e-10
	1.000000000000000e+00,0.000000000000000e+00
	0.000000000000000e+00,0.000000000000000e+00
	1.386049845738811e-03,7.508513557565814e-14
	1.386049845608609e-03,5.562862709959472e-14
	-1.545040153441877e-06,-8.338560242287259e-14
	8.612375249444039e-04,1.020637663652528e-11
	-7.392265848927403e-04,-3.203516442877027e-14
	-1.204658998982217e-04,-1.009095586967364e-11
	1.545040153441894e-06,8.338560242287311e-14
	-8.612375249444221e-04,-1.020637663652528e-11
	1.545040153441894e-06,8.338560242287311e-14
2		1.047128548050899e+00,0.000000000000000e+00
	1.545040153441894e-02,8.532790261643512e-10
	1.000000000000000e+00,0.000000000000000e+00
	0.000000000000000e+00,0.000000000000000e+00
	1.386049845738811e-03,7.683409305902126e-14
	1.386049845608609e-03,5.692438428121448e-14
	-1.545040153441877e-06,-8.532790261643529e-14
	8.612375249444039e-04,1.044411368873433e-11
	-7.392265848927403e-04,-3.278135926652228e-14
	-1.204658998982217e-04,-1.032600442685137e-11
	1.545040153441894e-06,8.532790261643512e-14
	-8.612375249444221e-04,-1.044411368873433e-11
	1.545040153441894e-06,8.532790261643512e-14
3		1.071519305237606e+00,0.000000000000000e+00
	1.545040153441894e-02,8.731544479341268e-10
	1.000000000000000e+00,0.000000000000000e+00
	0.000000000000000e+00,0.000000000000000e+00
	1.386049845738811e-03,7.862378899554389e-14
	1.386049845608609e-03,5.825032352486357e-14
	-1.545040153441877e-06,-8.731544479341208e-14
	8.612375249444039e-04,1.068738834826534e-11
	-7.392265848927403e-04,-3.354493521487005e-14
	-1.204658998982217e-04,-1.056652796825705e-11
	1.545040153441894e-06,8.731544479341268e-14
	-8.612375249444221e-04,-1.068738834826533e-11
	1.545040153441894e-06,8.731544479341268e-14
4		1.096478196143185e+00,0.000000000000000e+00
	1.545040153441894e-02,8.934928277497622e-10
	1.000000000000000e+00,0.000000000000000e+00
	0.000000000000000e+00,0.000000000000000e+00
	1.386049845738811e-03,8.045517230570069e-14
	1.386049845608609e-03,5.960714786107962e-14
	-1.545040153441877e-06,-8.934928277497653e-14
	8.612375249444039e-04,1.093632960256290e-11
	-7.392265848927403e-04,-3.432629713188840e-14
	-1.204658998982217e-04,-1.081265402265603e-11
	1.545040153441894e-06,8.934928277497623e-14
	-8.612375249444221e-04,-1.093632960256290e-11
	1.545040153441894e-06,8.934928277497623e-14
5		1.122018454301963e+00,0.000000000000000e+00
	1.545040153441894e-02,9.143049492894470e-10
	1.000000000000000e+00,0.000000000000000e+00
	0.000000000000000e+00,0.000000000000000e+00
	1.386049845738811e-03,8.232921401316409e-14
	1.386049845608609e-03,6.099557669608549e-14
	-1.545040153441877e-06,-9.143049492894424e-14
	8.612375249444039e-04,1.119106944357518e-11
	-7.392265848927403e-04,-3.512585930600834e-14
	-1.204658998982217e-04,-1.106451308934023e-11
	1.545040153441894e-06,9.143049492894470e-14
	-8.612375249444221e-04,-1.119106944357518e-11
	1.545040153441894e-06,9.143049492894470e-14
6		1.148153621496882e+00,0.000000000000000e+00
	1.545040153441894e-02,9.356018474155014e-10
	1.000000000000000e+00,0.000000000000000e+00
	0.000000000000000e+00,0.000000000000000e+00
	1.386049845738811e-03,8.424690775965335e-14
	1.386049845608609e-03,6.241634619322762e-14
	-1.545040153441891e-06,-9.356018474154851e-14
	8.612375249444039e-04,1.145174293773776e-11
	-7.392265848927403e-04,-3.594404567567808e-14
	-1.204658998982217e-04,-1.132223870732053e-11
	1.545040153441894e-06,9.356018474155014e-14
	-8.612375249444221e-04,-1.145174293773776e-11
	1.545040153441894e-06,9.356018474155014e-14
7		1.174897554939529e+00,0.000000000000000e+00
	1.545040153441894e-02,9.573948140252100e-10
	1.000000000000000e+00,0.000000000000000e+00
	0.000000000000000e+00,0.000000000000000e+00
	1.386049845738811e-03,8.620927033177630e-14
	1.386049845608609e-03,6.387020966329932e-14
	-1.545040153441891e-06,-9.573948140251956e-14
	8.612375249444039e-04,1.171848829758767e-11
	-7.392265848927403e-04,-3.678129005414070e-14
	-1.204658998982217e-04,-1.158596752613101e-11
	1.545040153441894e-06,9.573948140252101e-14
	-8.612375249444221e-04,-1.171848829758767e-11
	1.545040153441894e-06,9.573948140252101e-14
8		1.202264434617413e+00,0.000000000000000e+00
	1.545040153441894e-02,9.796954040379331e-10
	1.000000000000000e+00,0.000000000000000e+00
	0.000000000000000e+00,0.000000000000000e+00
	1.386049845738811e-03,8.821734220014387e-14
	1.386049845608609e-03,6.535793796395672e-14
	-1.545040153441891e-06,-9.796954040379287e-14
	8.612375249444039e-04,1.199144695504549e-11
	-7.392265848927403e-04,-3.763803635944800e-14
	-1.204658998982217e-04,-1.185583937828224e-11
	1.545040153441894e-06,9.796954040379332e-14
	-8.612375249444221e-04,-1.199144695504548e-11
	1.545040153441894e-06,9.796954040379332e-14
9		1.230268770812381e+00,0.000000000000000e+00
	1.545040153441894e-02,1.002515441521679e-09
	1.000000000000000e+00,0.000000000000000e+00
	0.000000000000000e+00,0.000000000000000e+00
	1.386049845738811e-03,9.027218807104043e-14
	1.386049845608609e-03,6.688031990843715e-14
	-1.545040153441891e-06,-1.002515441521673e-13
	8.612375249444039e-04,1.227076363640443e-11
	-7.392265848927403e-04,-3.851473884983134e-14
	-1.204658998982217e-04,-1.213199735340244e-11
	1.545040153441894e-06,1.002515441521679e-13
	-8.612375249444221e-04,-1.227076363640443e-11
	1.545040153441894e-06,1.002515441521679e-13
10		1.258925411794167e+00,0.000000000000000e+00
	1.545040153441894e-02,1.025867025962380e-09
	1.000000000000000e+00,0.000000000000000e+00
	0.000000000000000e+00,0.000000000000000e+00
	1.386049845738811e-03,9.237489745094595e-14
	1.386049845608609e-03,6.843816268379874e-14
	-1.545040153441891e-06,-1.025867025962376e-13
	8.612375249444039e-04,1.255658643906616e-11
	-7.392265848927403e-04,-3.941186236455573e-14
	-1.204658998982217e-04,-1.241458787410537e-11
	1.545040153441894e-06,1.025867025962380e-13
	-8.612375249444221e-04,-1.255658643906616e-11
	1.545040153441894e-06,1.025867025962380e-13
11		1.288249551693134e+00,0.000000000000000e+00
	1.545040153441894e-02,1.049762538679202e-09
	1.000000000000000e+00,0.000000000000000e+00
	0.000000000000000e+00,0.000000000000000e+00
	1.386049845738811e-03,9.452658522420629e-14
	1.386049845608609e-03,7.003229227890144e-14
	-1.545040153441891e-06,-1.049762538679192e-13
	8.612375249444039e-04,1.284906691006395e-11
	-7.392265848927403e-04,-4.032988257038347e-14
	-1.204658998982217e-04,-1.270376077362565e-11
	1.545040153441894e-06,1.049762538679202e-13
	-8.612375249444221e-04,-1.284906691006395e-11
	1.545040153441894e-06,1.049762538679202e-13
12		1.318256738556407e+00,0.000000000000000e+00
	1.545040153441894e-02,1.074214649389282e-09
	1.000000000000000e+00,0.000000000000000e+00
	0.000000000000000e+00,0.000000000000000e+00
	1.386049845738811e-03,9.672839224415980e-14
	1.386049845608609e-03,7.166355392235746e-14
	-1.545040153441891e-06,-1.074214649389267e-13
	8.612375249444039e-04,1.314836012641496e-11
	-7.392265848927403e-04,-4.126928621377915e-14
	-1.204658998982217e-04,-1.299966937526226e-11
	1.545040153441894e-06,1.074214649389282e-13
	-8.612375249444221e-04,-1.314836012641496e-11
	1.545040153441894e-06,1.074214649389282e-13
13		1.348962882591653e+00,0.000000000000000e+00
	1.545040153441894e-02,1.099236322925379e-09
	1.000000000000000e+00,0.000000000000000e+00
	0.000000000000000e+00,0.000000000000000e+00
	1.386049845738811e-03,9.898148593803274e-14
	1.386049845608609e-03,7.333281253068229e-14
	-1.545040153441891e-06,-1.099236322925362e-13
	8.612375249444039e-04,1.345462477734412e-11
	-7.392265848927403e-04,-4.223057137898892e-14
	-1.204658998982217e-04,-1.330247057367260e-11
	1.545040153441894e-06,1.099236322925379e-13
	-8.612375249444221e-04,-1.345462477734412e-11
	1.545040153441894e-06,1.099236322925379e-13
14		1.380384264602885e+00,0.000000000000000e+00
	1.545040153441894e-02,1.124840826110005e-09
	1.000000000000000e+00,0.000000000000000e+00
	0.000000000000000e+00,0.000000000000000e+00
	1.386049845738811e-03,1.012870609259249e-13
	1.386049845608609e-03,7.504095316688543e-14
	-1.545040153441891e-06,-1.124840826110014e-13
	8.612375249444039e-04,1.376802324842325e-11
	-7.392265848927403e-04,-4.321424775213152e-14
	-1.204658998982217e-04,-1.361232491806011e-11
	1.545040153441894e-06,1.124840826110005e-13
	-8.612375249444221e-04,-1.376802324842324e-11
	1.545040153441894e-06,1.124840826110005e-13
15		1.412537544622754e+00,0.000000000000000e+00
	1.545040153441894e-02,1.151041734789662e-09
	1.000000000000000e+00,0.000000000000000e+00
	0.000000000000000e+00,0.000000000000000e+00
	1.386049845738811e-03,1.036463396542128e-13
	1.386049845608609e-03,7.678888150974220e-14
	-1.545040153441891e-06,-1.151041734789657e-13
	8.612375249444039e-04,1.408872170767001e-11
	-7.392265848927403e-04,-4.422083689144055e-14
	-1.204658998982217e-04,-1.392939669729960e-11
	1.545040153441894e-06,1.151041734789662e-13
	-8.612375249444221e-04,-1.408872170767001e-11
	1.545040153441894e-06,1.151041734789662e-13
16		1.445439770745927e+00,0.000000000000000e+00
	1.545040153441894e-02,1.177852941032944e-09
	1.000000000000000e+00,0.000000000000000e+00
	0.000000000000000e+00,0.000000000000000e+00
	1.386049845738811e-03,1.060605730437067e-13
	1.386049845608609e-03,7.857752433399629e-14
	-1.545040153441891e-06,-1.177852941032909e-13
	8.612375249444039e-04,1.441689019365246e-11
	-7.392265848927403e-04,-4.525087250380133e-14
	-1.204658998982217e-04,-1.425385402704537e-11
	1.545040153441894e-06,1.177852941032944e-13
	-8.612375249444221e-04,-1.441689019365246e-11
	1.545040153441894e-06,1.177852941032944e-13
17		1.479108388168207e+00,0.000000000000000e+00
	1.545040153441894e-02,1.205288660496287e-09
	1.000000000000000e+00,0.000000000000000e+00
	0.000000000000000e+00,0.000000000000000e+00
	1.386049845738811e-03,1.085310411529062e-13
	1.386049845608609e-03,8.040783000174888e-14
	-1.545040153441891e-06,-1.205288660496306e-13
	8.612375249444039e-04,1.475270270564569e-11
	-7.392265848927403e-04,-4.630490072772979e-14
	-1.204658998982217e-04,-1.458586893886833e-11
	1.545040153441894e-06,1.205288660496287e-13
	-8.612375249444221e-04,-1.475270270564568e-11
	1.545040153441894e-06,1.205288660496287e-13
18		1.513561248436208e+00,0.000000000000000e+00
	1.545040153441894e-02,1.233363439961307e-09
	1.000000000000000e+00,0.000000000000000e+00
	0.000000000000000e+00,0.000000000000000e+00
	1.386049845738811e-03,1.110590538567030e-13
	1.386049845608609e-03,8.228076896529175e-14
	-1.545040153441891e-06,-1.233363439961313e-13
	8.612375249444039e-04,1.509633729588855e-11
	-7.392265848927403e-04,-4.738348042294186e-14
	-1.204658998982217e-04,-1.492561747146947e-11
	1.545040153441894e-06,1.233363439961308e-13
	-8.612375249444221e-04,-1.509633729588855e-11
	1.545040153441894e-06,1.233363439961308e-13
19		1.548816618912481e+00,0.000000000000000e+00
	1.545040153441894e-02,1.262092165047691e-09
	1.000000000000000e+00,0.000000000000000e+00
	0.000000000000000e+00,0.000000000000000e+00
	1.386049845738811e-03,1.136459515408950e-13
	1.386049845608609e-03,8.419733428165486e-14
	-1.545040153441891e-06,-1.262092165047684e-13
	8.612375249444039e-04,1.544797616398934e-11
	-7.392265848927403e-04,-4.848718346666872e-14
	-1.204658998982217e-04,-1.527327976401790e-11
	1.545040153441894e-06,1.262092165047691e-13
	-8.612375249444221e-04,-1.544797616398934e-11
	1.545040153441894e-06,1.262092165047691e-13
20		1.584893192461113e+00,0.000000000000000e+00
	1.545040153441894e-02,1.291490068105747e-09
	1.000000000000000e+00,0.000000000000000e+00
	0.000000000000000e+00,0.000000000000000e+00
	1.386049845738811e-03,1.162931058128761e-13
	1.386049845608609e-03,8.615854213913753e-14
	-1.545040153441891e-06,-1.291490068105741e-13
	8.612375249444039e-04,1.580780575353042e-11
	-7.392265848927403e-04,-4.961659505687336e-14
	-1.204658998982217e-04,-1.562904015166297e-11
	1.545040153441894e-06,1.291490068105747e-13
	-8.612375249444221e-04,-1.580780575353042e-11
	1.545040153441894e-06,1.291490068105747e-13
21		1.621810097358929e+00,0.000000000000000e+00
	1.545040153441894e-02,1.321572736292805e-09
	1.000000000000000e+00,0.000000000000000e+00
	0.000000000000000e+00,0.000000000000000e+00
	1.386049845738811e-03,1.190019202288803e-13
	1.386049845608609e-03,8.816543239610542e-14
	-1.545040153441891e-06,-1.321572736292803e-13
	8.612375249444039e-04,1.617601685092306e-11
	-7.392265848927403e-04,-5.077231402253038e-14
	-1.204658998982217e-04,-1.599308726327125e-11
	1.545040153441894e-06,1.321572736292805e-13
	-8.612375249444221e-04,-1.617601685092306e-11
	1.545040153441894e-06,1.321572736292805e-13
22		1.659586907437560e+00,0.000000000000000e+00
	1.545040153441894e-02,1.352356119837728e-09
	1.000000000000000e+00,0.000000000000000e+00
	0.000000000000000e+00,0.000000000000000e+00
	1.386049845738811e-03,1.217738310381665e-13
	1.386049845608609e-03,9.021906913233726e-14
	-1.545040153441891e-06,-1.352356119837743e-13
	8.612375249444039e-04,1.655280468656497e-11
	-7.392265848927403e-04,-5.195495314113321e-14
	-1.204658998982217e-04,-1.636561412144006e-11
	1.545040153441894e-06,1.352356119837728e-13
	-8.612375249444221e-04,-1.655280468656496e-11
	1.545040153441894e-06,1.352356119837728e-13
23		1.698243652461743e+00,0.000000000000000e+00
	1.545040153441894e-02,1.383856540497939e-09
	1.000000000000000e+00,0.000000000000000e+00
	0.000000000000000e+00,0.000000000000000e+00
	1.386049845738811e-03,1.246103079445364e-13
	1.386049845608609e-03,9.232054121321362e-14
	-1.545040153441891e-06,-1.383856540497932e-13
	8.612375249444039e-04,1.693836903835395e-11
	-7.392265848927403e-04,-5.316513946359655e-14
	-1.204658998982217e-04,-1.674681824484056e-11
	1.545040153441894e-06,1.383856540497939e-13
	-8.612375249444221e-04,-1.693836903835395e-11
	1.545040153441894e-06,1.383856540497939e-13
24		1.737800828749374e+00,0.000000000000000e+00
	1.545040153441895e-02,1.416090700213428e-09
	1.000000000000000e+00,0.000000000000000e+00
	0.000000000000000e+00,0.000000000000000e+00
	1.386049845738811e-03,1.275128548855909e-13
	1.386049845608609e-03,9.447096286704811e-14
	-1.545040153441877e-06,-1.416090700213434e-13
	8.612375249444039e-04,1.733291433761289e-11
	-7.392265848927403e-04,-5.440351464672736e-14
	-1.204658998982217e-04,-1.713690175294482e-11
	1.545040153441895e-06,1.416090700213428e-13
	-8.612375249444221e-04,-1.733291433761289e-11
	1.545040153441895e-06,1.416090700213428e-13
25		1.778279410038922e+00,0.000000000000000e+00
	1.545040153441895e-02,1.449075689962348e-09
	1.000000000000000e+00,0.000000000000000e+00
	0.000000000000000e+00,0.000000000000000e+00
	1.386049845738811e-03,1.304830108301379e-13
	1.386049845608609e-03,9.667147427586570e-14
	-1.545040153441877e-06,-1.449075689962333e-13
	8.612375249444039e-04,1.773664977748188e-11
	-7.392265848927403e-04,-5.567073529343950e-14
	-1.204658998982217e-04,-1.753607147319221e-11
	1.545040153441895e-06,1.449075689962348e-13
	-8.612375249444221e-04,-1.773664977748188e-11
	1.545040153441895e-06,1.449075689962348e-13
26		1.819700858609982e+00,0.000000000000000e+00
	1.545040153441895e-02,1.482828998822869e-09
	1.000000000000000e+00,0.000000000000000e+00
	0.000000000000000e+00,0.000000000000000e+00
	1.386049845738811e-03,1.335223505941739e-13
	1.386049845608609e-03,9.892324217994252e-14
	-1.545040153441877e-06,-1.482828998822850e-13
	8.612375249444039e-04,1.814978942383521e-11
	-7.392265848927403e-04,-5.696747330089346e-14
	-1.204658998982217e-04,-1.794453905065203e-11
	1.545040153441895e-06,1.482828998822869e-13
	-8.612375249444221e-04,-1.814978942383520e-11
	1.545040153441895e-06,1.482828998822869e-13
27		1.862087136662866e+00,0.000000000000000e+00
	1.545040153441895e-02,1.517368523246128e-09
	1.000000000000000e+00,0.000000000000000e+00
	0.000000000000000e+00,0.000000000000000e+00
	1.386049845738811e-03,1.366324856758721e-13
	1.386049845608609e-03,1.012274604964271e-13
	-1.545040153441877e-06,-1.517368523246119e-13
	8.612375249444039e-04,1.857255232878191e-11
	-7.392265848927403e-04,-5.829441621674527e-14
	-1.204658998982217e-04,-1.836252106024055e-11
	1.545040153441895e-06,1.517368523246128e-13
	-8.612375249444221e-04,-1.857255232878191e-11
	1.545040153441895e-06,1.517368523246128e-13
28		1.905460717963246e+00,0.000000000000000e+00
	1.545040153441895e-02,1.552712576545159e-09
	1.000000000000000e+00,0.000000000000000e+00
	0.000000000000000e+00,0.000000000000000e+00
	1.386049845738811e-03,1.398150651100205e-13
	1.386049845608609e-03,1.035853509523708e-13
	-1.545040153441877e-06,-1.552712576545177e-13
	8.612375249444039e-04,1.900516264681013e-11
	-7.392265848927403e-04,-5.965226760369299e-14
	-1.204658998982217e-04,-1.879023912155192e-11
	1.545040153441895e-06,1.552712576545159e-13
	-8.612375249444221e-04,-1.900516264681013e-11
	1.545040153441895e-06,1.552712576545159e-13
29		1.949844599758044e+00,0.000000000000000e+00
	1.545040153441895e-02,1.588879898604856e-09
	1.000000000000000e+00,0.000000000000000e+00
	0.000000000000000e+00,0.000000000000000e+00
	1.386049845738811e-03,1.430717763423612e-13
	1.386049845608609e-03,1.059981637325034e-13
	-1.545040153441877e-06,-1.588879898604851e-13
	8.612375249444039e-04,1.944784975363675e-11
	-7.392265848927403e-04,-6.104174741251520e-14
	-1.204658998982217e-04,-1.922792001636375e-11
	1.545040153441895e-06,1.588879898604856e-13
	-8.612375249444221e-04,-1.944784975363676e-11
	1.545040153441895e-06,1.588879898604856e-13
30		1.995262314968878e+00,0.000000000000000e+00
	1.545040153441895e-02,1.625889665818104e-09
	1.000000000000000e+00,0.000000000000000e+00
	0.000000000000000e+00,0.000000000000000e+00
	1.386049845738811e-03,1.464043461242977e-13
	1.386049845608609e-03,1.084671781420988e-13
	-1.545040153441891e-06,-1.625889665818090e-13
	8.612375249444039e-04,1.990084836782548e-11
	-7.392265848927403e-04,-6.246359236379872e-14
	-1.204658998982217e-04,-1.967579580887987e-11
	1.545040153441895e-06,1.625889665818104e-13
	-8.612375249444221e-04,-1.990084836782548e-11
	1.545040153441895e-06,1.625889665818104e-13
31		2.041737944669527e+00,0.000000000000000e+00
	1.545040153441895e-02,1.663761501253363e-09
	1.000000000000000e+00,0.000000000000000e+00
	0.000000000000000e+00,0.000000000000000e+00
	1.386049845738811e-03,1.498145414284398e-13
	1.386049845608609e-03,1.109937032852779e-13
	-1.545040153441891e-06,-1.663761501253370e-13
	8.612375249444039e-04,2.036439867523769e-11
	-7.392265848927403e-04,-6.391855633855685e-14
	-1.204658998982217e-04,-2.013410396877380e-11
	1.545040153441895e-06,1.663761501253363e-13
	-8.612375249444221e-04,-2.036439867523770e-11
	1.545040153441895e-06,1.663761501253363e-13
32		2.089296130854037e+00,0.000000000000000e+00
	1.545040153441895e-02,1.702515485059073e-09
	1.000000000000000e+00,0.000000000000000e+00
	0.000000000000000e+00,0.000000000000000e+00
	1.386049845738811e-03,1.533041703854772e-13
	1.386049845608609e-03,1.135790787591142e-13
	-1.545040153441891e-06,-1.702515485059092e-13
	8.612375249444039e-04,2.083874645638221e-11
	-7.392265848927403e-04,-6.540741077794781e-14
	-1.204658998982217e-04,-2.060308749709835e-11
	1.545040153441895e-06,1.702515485059073e-13
	-8.612375249444221e-04,-2.083874645638221e-11
	1.545040153441895e-06,1.702515485059073e-13
33		2.137962089502230e+00,0.000000000000000e+00
	1.545040153441895e-02,1.742172165110418e-09
	1.000000000000000e+00,0.000000000000000e+00
	0.000000000000000e+00,0.000000000000000e+00
	1.386049845738811e-03,1.568750832428735e-13
	1.386049845608609e-03,1.162246753639053e-13
	-1.545040153441891e-06,-1.742172165110412e-13
	8.612375249444039e-04,2.132414321673131e-11
	-7.392265848927403e-04,-6.693094509230263e-14
	-1.204658998982217e-04,-2.108299505512796e-11
	1.545040153441895e-06,1.742172165110418e-13
	-8.612375249444221e-04,-2.132414321673131e-11
	1.545040153441895e-06,1.742172165110418e-13
34		2.187761623949550e+00,0.000000000000000e+00
	1.545040153441895e-02,1.782752567904080e-09
	1.000000000000000e+00,0.000000000000000e+00
	0.000000000000000e+00,0.000000000000000e+00
	1.386049845738811e-03,1.605291733458923e-13
	1.386049845608609e-03,1.189318958299899e-13
	-1.545040153441891e-06,-1.782752567904072e-13
	8.612375249444039e-04,2.182084632007233e-11
	-7.392265848927403e-04,-6.848996707968122e-14
	-1.204658998982217e-04,-2.157408109620224e-11
	1.545040153441895e-06,1.782752567904080e-13
	-8.612375249444221e-04,-2.182084632007233e-11
	1.545040153441895e-06,1.782752567904080e-13
35		2.238721138568337e+00,0.000000000000000e+00
	1.545040153441895e-02,1.824278209706765e-09
	1.000000000000000e+00,0.000000000000000e+00
	0.000000000000000e+00,0.000000000000000e+00
	1.386049845738811e-03,1.642683781414742e-13
	1.386049845608609e-03,1.217021755614935e-13
	-1.545040153441891e-06,-1.824278209706752e-13
	8.612375249444039e-04,2.232911912496529e-11
	-7.392265848927403e-04,-7.008530335417739e-14
	-1.204658998982217e-04,-2.207660600064044e-11
	1.545040153441895e-06,1.824278209706765e-13
	-8.612375249444221e-04,-2.232911912496529e-11
	1.545040153441895e-06,1.824278209706765e-13
36		2.290867652767770e+00,0.000000000000000e+00
	1.545040153441895e-02,1.866771107963412e-09
	1.000000000000000e+00,0.000000000000000e+00
	0.000000000000000e+00,0.000000000000000e+00
	1.386049845738811e-03,1.680946802054954e-13
	1.386049845608609e-03,1.245369833973982e-13
	-1.545040153441891e-06,-1.866771107963429e-13
	8.612375249444039e-04,2.284923112437914e-11
	-7.392265848927403e-04,-7.171779978420052e-14
	-1.204658998982217e-04,-2.259083621379860e-11
	1.545040153441895e-06,1.866771107963412e-13
	-8.612375249444221e-04,-2.284923112437915e-11
	1.545040153441895e-06,1.866771107963412e-13
37		2.344228815319919e+00,0.000000000000000e+00
	1.545040153441895e-02,1.910253792971138e-09
	1.000000000000000e+00,0.000000000000000e+00
	0.000000000000000e+00,0.000000000000000e+00
	1.386049845738811e-03,1.720101082939578e-13
	1.386049845608609e-03,1.274378223903422e-13
	-1.545040153441891e-06,-1.910253792971140e-13
	8.612375249444039e-04,2.338145808858047e-11
	-7.392265848927403e-04,-7.338832194096654e-14
	-1.204658998982217e-04,-2.311704438734239e-11
	1.545040153441895e-06,1.910253792971138e-13
	-8.612375249444221e-04,-2.338145808858048e-11
	1.545040153441895e-06,1.910253792971138e-13
38		2.398832919019488e+00,0.000000000000000e+00
	1.545040153441895e-02,1.954749319825097e-09
	1.000000000000000e+00,0.000000000000000e+00
	0.000000000000000e+00,0.000000000000000e+00
	1.386049845738811e-03,1.760167384186607e-13
	1.386049845608609e-03,1.304062306035566e-13
	-1.545040153441891e-06,-1.954749319825088e-13
	8.612375249444039e-04,2.392608221135056e-11
	-7.392265848927403e-04,-7.509775555743500e-14
	-1.204658998982217e-04,-2.365550952381062e-11
	1.545040153441895e-06,1.954749319825097e-13
	-8.612375249444221e-04,-2.392608221135056e-11
	1.545040153441895e-06,1.954749319825097e-13
39		2.454708915685027e+00,0.000000000000000e+00
	1.545040153441895e-02,2.000281280642592e-09
	1.000000000000000e+00,0.000000000000000e+00
	0.000000000000000e+00,0.000000000000000e+00
	1.386049845738811e-03,1.801166949479301e-13
	1.386049845608609e-03,1.334437819263675e-13
	-1.545040153441891e-06,-2.000281280642591e-13
	8.612375249444039e-04,2.448339225960823e-11
	-7.392265848927403e-04,-7.684700699793630e-14
	-1.204658998982217e-04,-2.420651712454604e-11
	1.545040153441895e-06,2.000281280642592e-13
	-8.612375249444221e-04,-2.448339225960823e-11
	1.545040153441895e-06,2.000281280642592e-13
40		2.511886431509577e+00,0.000000000000000e+00
	1.545040153441895e-02,2.046873817071936e-09
	1.000000000000000e+00,0.000000000000000e+00
	0.000000000000000e+00,0.000000000000000e+00
	1.386049845738811e-03,1.843121517329871e-13
	1.386049845608609e-03,1.365520869086929e-13
	-1.545040153441891e-06,-2.046873817071945e-13
	8.612375249444039e-04,2.505368372651796e-11
	-7.392265848927403e-04,-7.863700373873823e-14
	-1.204658998982217e-04,-2.477035934107203e-11
	1.545040153441895e-06,2.046873817071936e-13
	-8.612375249444221e-04,-2.505368372651796e-11
	1.545040153441895e-06,2.046873817071936e-13
41		2.570395782768860e+00,0.000000000000000e+00
	1.545040153441895e-02,2.094551633092670e-09
	1.000000000000000e+00,0.000000000000000e+00
	0.000000000000000e+00,0.000000000000000e+00
	1.386049845738811e-03,1.886053332605527e-13
	1.386049845608609e-03,1.397327936149780e-13
	-1.545040153441905e-06,-2.094551633092688e-13
	8.612375249444040e-04,2.563725898816420e-11
	-7.392265848927403e-04,-8.046869485980631e-14
	-1.204658998982217e-04,-2.534733512999512e-11
	1.545040153441895e-06,2.094551633092670e-13
	-8.612375249444221e-04,-2.563725898816420e-11
	1.545040153441895e-06,2.094551633092670e-13
42		2.630267991895378e+00,0.000000000000000e+00
	1.545040153441895e-02,2.143340008113939e-09
	1.000000000000000e+00,0.000000000000000e+00
	0.000000000000000e+00,0.000000000000000e+00
	1.386049845738811e-03,1.929985158322999e-13
	1.386049845608609e-03,1.429875884980199e-13
	-1.545040153441905e-06,-2.143340008113925e-13
	8.612375249444040e-04,2.623442746387520e-11
	-7.392265848927403e-04,-8.234305154801815e-14
	-1.204658998982217e-04,-2.593775041151579e-11
	1.545040153441895e-06,2.143340008113939e-13
	-8.612375249444221e-04,-2.623442746387520e-11
	1.545040153441895e-06,2.143340008113939e-13
43		2.691534803926912e+00,0.000000000000000e+00
	1.545040153441895e-02,2.193264810377969e-09
	1.000000000000000e+00,0.000000000000000e+00
	0.000000000000000e+00,0.000000000000000e+00
	1.386049845738811e-03,1.974940287717788e-13
	1.386049845608609e-03,1.463181972931480e-13
	-1.545040153441891e-06,-2.193264810377949e-13
	8.612375249444039e-04,2.684550578028125e-11
	-7.392265848927403e-04,-8.426106761209994e-14
	-1.204658998982217e-04,-2.654191823163136e-11
	1.545040153441895e-06,2.193264810377969e-13
	-8.612375249444221e-04,-2.684550578028125e-11
	1.545040153441895e-06,2.193264810377969e-13
44		2.754228703338163e+00,0.000000000000000e+00
	1.545040153441895e-02,2.244352510675752e-09
	1.000000000000000e+00,0.000000000000000e+00
	0.000000000000000e+00,0.000000000000000e+00
	1.386049845738811e-03,2.020942556594547e-13
	1.386049845608609e-03,1.497263859332310e-13
	-1.545040153441891e-06,-2.244352510675750e-13
	8.612375249444039e-04,2.747081793919428e-11
	-7.392265848927403e-04,-8.622376000955659e-14
	-1.204658998982217e-04,-2.716015892811715e-11
	1.545040153441895e-06,2.244352510675752e-13
	-8.612375249444221e-04,-2.747081793919428e-11
	1.545040153441895e-06,2.244352510675752e-13
45		2.818382931264450e+00,0.000000000000000e+00
	1.545040153441895e-02,2.296630196382214e-09
	1.000000000000000e+00,0.000000000000000e+00
	0.000000000000000e+00,0.000000000000000e+00
	1.386049845738811e-03,2.068016355965152e-13
	1.386049845608609e-03,1.532139614849991e-13
	-1.545040153441891e-06,-2.296630196382207e-13
	8.612375249444039e-04,2.811069548939794e-11
	-7.392265848927403e-04,-8.823216938587684e-14
	-1.204658998982217e-04,-2.779280030037384e-11
	1.545040153441895e-06,2.296630196382214e-13
	-8.612375249444221e-04,-2.811069548939794e-11
	1.545040153441895e-06,2.296630196382214e-13
46		2.884031503126602e+00,0.000000000000000e+00
	1.545040153441895e-02,2.350125585818291e-09
	1.000000000000000e+00,0.000000000000000e+00
	0.000000000000000e+00,0.000000000000000e+00
	1.386049845738811e-03,2.116186644981122e-13
	1.386049845608609e-03,1.567827731071730e-13
	-1.545040153441891e-06,-2.350125585818249e-13
	8.612375249444039e-04,2.876547770243911e-11
	-7.392265848927403e-04,-9.028736062629629e-14
	-1.204658998982217e-04,-2.844017778323098e-11
	1.545040153441895e-06,2.350125585818292e-13
	-8.612375249444221e-04,-2.876547770243910e-11
	1.545040153441895e-06,2.350125585818292e-13
47		2.951209226666381e+00,0.000000000000000e+00
	1.545040153441895e-02,2.404867042947560e-09
	1.000000000000000e+00,0.000000000000000e+00
	0.000000000000000e+00,0.000000000000000e+00
	1.386049845738811e-03,2.165478964167302e-13
	1.386049845608609e-03,1.604347130309136e-13
	-1.545040153441891e-06,-2.404867042947545e-13
	8.612375249444040e-04,2.943551175251423e-11
	-7.392265848927403e-04,-9.239042342041427e-14
	-1.204658998982217e-04,-2.910263462479906e-11
	1.545040153441895e-06,2.404867042947560e-13
	-8.612375249444221e-04,-2.943551175251422e-11
	1.545040153441895e-06,2.404867042947560e-13
48		3.019951720402012e+00,0.000000000000000e+00
	1.545040153441895e-02,2.460883592415177e-09
	1.000000000000000e+00,0.000000000000000e+00
	0.000000000000000e+00,0.000000000000000e+00
	1.386049845738811e-03,2.215919448963787e-13
	1.386049845608609e-03,1.641717175631076e-13
	-1.545040153441877e-06,-2.460883592415216e-13
	8.612375249444040e-04,3.012115290054560e-11
	-7.392265848927403e-04,-9.454247283996158e-14
	-1.204658998982217e-04,-2.978052206846411e-11
	1.545040153441895e-06,2.460883592415177e-13
	-8.612375249444221e-04,-3.012115290054559e-11
	1.545040153441895e-06,2.460883592415177e-13
49		3.090295432513586e+00,0.000000000000000e+00
	1.545040153441895e-02,2.518204934937138e-09
	1.000000000000000e+00,0.000000000000000e+00
	0.000000000000000e+00,0.000000000000000e+00