Title: * GA CMOS Amp | W=1.5037912298004466e-05 L=9.73665353990474e-07 Vbias=1.1803748851686706
Date: Sat Sep  6 22:39:17 2025
Plotname: AC Analysis
Flags: complex forward log
No. Variables: 13
No. Points:          901
Offset:    0.0000000000000000e+00
Command: Linear Technology Corporation LTspice
Variables:
	0	frequency	frequency
	1	V(out)	voltage
	2	V(g)	voltage
	3	V(vdd)	voltage
	4	V(m1#dbody)	voltage
	5	V(m1#sbody)	voltage
	6	Id(M1)	device_current
	7	Ig(M1)	device_current
	8	Ib(M1)	device_current
	9	Is(M1)	device_current
	10	I(Rload)	device_current
	11	I(Vg)	device_current
	12	I(Vdd)	device_current
Values:
0		1.000000000000000e+00,0.000000000000000e+00
	5.040722312286814e-03,1.343757645925440e-09
	1.000000000000000e+00,0.000000000000000e+00
	0.000000000000000e+00,0.000000000000000e+00
	4.385426262880383e-05,1.069443290957366e-13
	4.385426259083635e-05,1.052138497233128e-13
	-5.040722312286817e-07,-1.343757645925443e-13
	3.617348103607585e-05,3.777110601891991e-12
	-2.338894006865890e-05,-5.623936320501668e-14
	-1.228046873618826e-05,-3.586495474094431e-12
	5.040722312286814e-07,1.343757645925441e-13
	-3.617348103612805e-05,-3.777110601891993e-12
	5.040722312286814e-07,1.343757645925441e-13
1		1.023292992280754e+00,0.000000000000000e+00
	5.040722312286814e-03,1.375057782399186e-09
	1.000000000000000e+00,0.000000000000000e+00
	0.000000000000000e+00,0.000000000000000e+00
	4.385426262880383e-05,1.094353825278340e-13
	4.385426259083634e-05,1.076645951127464e-13
	-5.040722312286817e-07,-1.375057782399185e-13
	3.617348103607584e-05,3.865090809985416e-12
	-2.338894006865890e-05,-5.754934625802567e-14
	-1.228046873618826e-05,-3.670035685487472e-12
	5.040722312286814e-07,1.375057782399186e-13
	-3.617348103612805e-05,-3.865090809985417e-12
	5.040722312286814e-07,1.375057782399186e-13
2		1.047128548050899e+00,0.000000000000000e+00
	5.040722312286815e-03,1.407086992710201e-09
	1.000000000000000e+00,0.000000000000000e+00
	0.000000000000000e+00,0.000000000000000e+00
	4.385426262880383e-05,1.119844600482962e-13
	4.385426259083634e-05,1.101724256956181e-13
	-5.040722312286808e-07,-1.407086992710200e-13
	3.617348103607584e-05,3.955120340386820e-12
	-2.338894006865890e-05,-5.888984273617630e-14
	-1.228046873618827e-05,-3.755521798379623e-12
	5.040722312286815e-07,1.407086992710201e-13
	-3.617348103612805e-05,-3.955120340386820e-12
	5.040722312286815e-07,1.407086992710201e-13
3		1.071519305237606e+00,0.000000000000000e+00
	5.040722312286815e-03,1.439862259169749e-09
	1.000000000000000e+00,0.000000000000000e+00
	0.000000000000000e+00,0.000000000000000e+00
	4.385426262880383e-05,1.145929132117656e-13
	4.385426259083634e-05,1.127386711568981e-13
	-5.040722312286808e-07,-1.439862259169749e-13
	3.617348103607584e-05,4.047246927944905e-12
	-2.338894006865890e-05,-6.026156338844487e-14
	-1.228046873618827e-05,-3.842999138639485e-12
	5.040722312286815e-07,1.439862259169750e-13
	-3.617348103612805e-05,-4.047246927944905e-12
	5.040722312286815e-07,1.439862259169750e-13
4		1.096478196143185e+00,0.000000000000000e+00
	5.040722312286815e-03,1.473400959657939e-09
	1.000000000000000e+00,0.000000000000000e+00
	0.000000000000000e+00,0.000000000000000e+00
	4.385426262880383e-05,1.172621250546363e-13
	4.385426259083634e-05,1.153646921538981e-13
	-5.040722312286808e-07,-1.473400959657938e-13
	3.617348103607584e-05,4.141519419395830e-12
	-2.338894006865890e-05,-6.166523551927806e-14
	-1.228046873618827e-05,-3.932514087910758e-12
	5.040722312286815e-07,1.473400959657939e-13
	-3.617348103612805e-05,-4.141519419395830e-12
	5.040722312286815e-07,1.473400959657939e-13
5		1.122018454301963e+00,0.000000000000000e+00
	5.040722312286815e-03,1.507720876837707e-09
	1.000000000000000e+00,0.000000000000000e+00
	0.000000000000000e+00,0.000000000000000e+00
	4.385426262880383e-05,1.199935108283588e-13
	4.385426259083634e-05,1.180518810377105e-13
	-5.040722312286808e-07,-1.507720876837712e-13
	3.617348103607584e-05,4.237987799262412e-12
	-2.338894006865890e-05,-6.310160337421953e-14
	-1.228046873618827e-05,-4.024114108204420e-12
	5.040722312286815e-07,1.507720876837708e-13
	-3.617348103612805e-05,-4.237987799262412e-12
	5.040722312286815e-07,1.507720876837708e-13
6		1.148153621496882e+00,0.000000000000000e+00
	5.040722312286815e-03,1.542840207583420e-09
	1.000000000000000e+00,0.000000000000000e+00
	0.000000000000000e+00,0.000000000000000e+00
	4.385426262880383e-05,1.227885187498244e-13
	4.385426259083634e-05,1.208016625914504e-13
	-5.040722312286808e-07,-1.542840207583417e-13
	3.617348103607584e-05,4.336703216356560e-12
	-2.338894006865890e-05,-6.457142853451843e-14
	-1.228046873618827e-05,-4.117847767063700e-12
	5.040722312286815e-07,1.542840207583420e-13
	-3.617348103612805e-05,-4.336703216356562e-12
	5.040722312286815e-07,1.542840207583420e-13
7		1.174897554939529e+00,0.000000000000000e+00
	5.040722312286815e-03,1.578777572629098e-09
	1.000000000000000e+00,0.000000000000000e+00
	0.000000000000000e+00,0.000000000000000e+00
	4.385426262880383e-05,1.256486307692292e-13
	4.385426259083634e-05,1.236154947856953e-13
	-5.040722312286817e-07,-1.578777572629092e-13
	3.617348103607585e-05,4.437718010899074e-12
	-2.338894006865890e-05,-6.607549032093021e-14
	-1.228046873618827e-05,-4.213764763315234e-12
	5.040722312286815e-07,1.578777572629098e-13
	-3.617348103612805e-05,-4.437718010899075e-12
	5.040722312286815e-07,1.578777572629098e-13
8		1.202264434617413e+00,0.000000000000000e+00
	5.040722312286815e-03,1.615552026441375e-09
	1.000000000000000e+00,0.000000000000000e+00
	0.000000000000000e+00,0.000000000000000e+00
	4.385426262880383e-05,1.285753633558242e-13
	4.385426259083634e-05,1.264948695515201e-13
	-5.040722312286817e-07,-1.615552026441374e-13
	3.617348103607585e-05,4.541085742271111e-12
	-2.338894006865890e-05,-6.761458620692269e-14
	-1.228046873618827e-05,-4.311915953420050e-12
	5.040722312286815e-07,1.615552026441375e-13
	-3.617348103612805e-05,-4.541085742271112e-12
	5.040722312286815e-07,1.615552026441375e-13
9		1.230268770812381e+00,0.000000000000000e+00
	5.040722312286815e-03,1.653183067322431e-09
	1.000000000000000e+00,0.000000000000000e+00
	0.000000000000000e+00,0.000000000000000e+00
	4.385426262880383e-05,1.315702683019666e-13
	4.385426259083634e-05,1.294413135715387e-13
	-5.040722312286808e-07,-1.653183067322430e-13
	3.617348103607584e-05,4.646861217412075e-12
	-2.338894006865890e-05,-6.918953224150694e-14
	-1.228046873618827e-05,-4.412353378438325e-12
	5.040722312286816e-07,1.653183067322431e-13
	-3.617348103612805e-05,-4.646861217412075e-12
	5.040722312286816e-07,1.653183067322431e-13
10		1.258925411794167e+00,0.000000000000000e+00
	5.040722312286815e-03,1.691690647748246e-09
	1.000000000000000e+00,0.000000000000000e+00
	0.000000000000000e+00,0.000000000000000e+00
	4.385426262880383e-05,1.346349335459010e-13
	4.385426259083634e-05,1.324563890893712e-13
	-5.040722312286808e-07,-1.691690647748251e-13
	3.617348103607584e-05,4.755100519878990e-12
	-2.338894006865890e-05,-7.080116348191733e-14
	-1.228046873618827e-05,-4.515130291622248e-12
	5.040722312286816e-07,1.691690647748246e-13
	-3.617348103612805e-05,-4.755100519878990e-12
	5.040722312286816e-07,1.691690647748246e-13
11		1.288249551693134e+00,0.000000000000000e+00
	5.040722312286815e-03,1.731095184947670e-09
	1.000000000000000e+00,0.000000000000000e+00
	0.000000000000000e+00,0.000000000000000e+00
	4.385426262880383e-05,1.377709840137056e-13
	4.385426259083634e-05,1.355416947379665e-13
	-5.040722312286808e-07,-1.731095184947669e-13
	3.617348103607584e-05,4.865861039582741e-12
	-2.338894006865890e-05,-7.245033443637007e-14
	-1.228046873618827e-05,-4.620301186651604e-12
	5.040722312286816e-07,1.731095184947670e-13
	-3.617348103612805e-05,-4.865861039582742e-12
	5.040722312286816e-07,1.731095184947670e-13
12		1.318256738556407e+00,0.000000000000000e+00
	5.040722312286815e-03,1.771417571727906e-09
	1.000000000000000e+00,0.000000000000000e+00
	0.000000000000000e+00,0.000000000000000e+00
	4.385426262880383e-05,1.409800824808487e-13
	4.385426259083634e-05,1.386988663872183e-13
	-5.040722312286817e-07,-1.771417571727909e-13
	3.617348103607585e-05,4.979201503216963e-12
	-2.338894006865890e-05,-7.413791951713447e-14
	-1.228046873618827e-05,-4.727921826527038e-12
	5.040722312286816e-07,1.771417571727906e-13
	-3.617348103612805e-05,-4.979201503216964e-12
	5.040722312286816e-07,1.771417571727906e-13
13		1.348962882591653e+00,0.000000000000000e+00
	5.040722312286815e-03,1.812679187552157e-09
	1.000000000000000e+00,0.000000000000000e+00
	0.000000000000000e+00,0.000000000000000e+00
	4.385426262880383e-05,1.442639304538152e-13
	4.385426259083634e-05,1.419295780113251e-13
	-5.040722312286817e-07,-1.812679187552158e-13
	3.617348103607585e-05,5.095182005395717e-12
	-2.338894006865890e-05,-7.586481350415829e-14
	-1.228046873618827e-05,-4.838049273136343e-12
	5.040722312286816e-07,1.812679187552157e-13
	-3.617348103612805e-05,-5.095182005395717e-12
	5.040722312286816e-07,1.812679187552157e-13
14		1.380384264602885e+00,0.000000000000000e+00
	5.040722312286815e-03,1.854901909875293e-09
	1.000000000000000e+00,0.000000000000000e+00
	0.000000000000000e+00,0.000000000000000e+00
	4.385426262880383e-05,1.476242690722672e-13
	4.385426259083634e-05,1.452355425763536e-13
	-5.040722312286817e-07,-1.854901909875299e-13
	3.617348103607585e-05,5.213864040516437e-12
	-2.338894006865890e-05,-7.763193201949146e-14
	-1.228046873618827e-05,-4.950741917509416e-12
	5.040722312286816e-07,1.854901909875293e-13
	-3.617348103612805e-05,-5.213864040516436e-12
	5.040722312286816e-07,1.854901909875293e-13
15		1.412537544622754e+00,0.000000000000000e+00
	5.040722312286816e-03,1.898108125743574e-09
	1.000000000000000e+00,0.000000000000000e+00
	0.000000000000000e+00,0.000000000000000e+00
	4.385426262880383e-05,1.510628800322195e-13
	4.385426259083634e-05,1.486185129484758e-13
	-5.040722312286817e-07,-1.898108125743578e-13
	3.617348103607585e-05,5.335310535365087e-12
	-2.338894006865890e-05,-7.944021201276151e-14
	-1.228046873618827e-05,-5.066059510777968e-12
	5.040722312286817e-07,1.898108125743574e-13
	-3.617348103612805e-05,-5.335310535365088e-12
	5.040722312286817e-07,1.898108125743574e-13
16		1.445439770745927e+00,0.000000000000000e+00
	5.040722312286816e-03,1.942320743664556e-09
	1.000000000000000e+00,0.000000000000000e+00
	0.000000000000000e+00,0.000000000000000e+00
	4.385426262880383e-05,1.545815865307184e-13
	4.385426259083634e-05,1.520802828233617e-13
	-5.040722312286817e-07,-1.942320743664560e-13
	3.617348103607585e-05,5.459585882480772e-12
	-2.338894006865890e-05,-8.129061225795624e-14
	-1.228046873618827e-05,-5.184063195856360e-12
	5.040722312286817e-07,1.942320743664556e-13
	-3.617348103612805e-05,-5.459585882480772e-12
	5.040722312286817e-07,1.942320743664556e-13
17		1.479108388168207e+00,0.000000000000000e+00
	5.040722312286816e-03,1.987563205753482e-09
	1.000000000000000e+00,0.000000000000000e+00
	0.000000000000000e+00,0.000000000000000e+00
	4.385426262880383e-05,1.581822542325252e-13
	4.385426259083634e-05,1.556226876772212e-13
	-5.040722312286817e-07,-1.987563205753485e-13
	3.617348103607585e-05,5.586755974297510e-12
	-2.338894006865890e-05,-8.318411386177858e-14
	-1.228046873618827e-05,-5.304815539860383e-12
	5.040722312286817e-07,1.987563205753482e-13
	-3.617348103612805e-05,-5.586755974297510e-12
	5.040722312286817e-07,1.987563205753482e-13
18		1.513561248436208e+00,0.000000000000000e+00
	5.040722312286816e-03,2.033859500162609e-09
	1.000000000000000e+00,0.000000000000000e+00
	0.000000000000000e+00,0.000000000000000e+00
	4.385426262880383e-05,1.618667922593157e-13
	4.385426259083634e-05,1.592476057399969e-13
	-5.040722312286817e-07,-2.033859500162610e-13
	3.617348103607585e-05,5.716888238081279e-12
	-2.338894006865890e-05,-8.512172078384237e-14
	-1.228046873618827e-05,-5.428380567281176e-12
	5.040722312286817e-07,2.033859500162609e-13
	-3.617348103612805e-05,-5.716888238081278e-12
	5.040722312286817e-07,2.033859500162609e-13
19		1.548816618912481e+00,0.000000000000000e+00
	5.040722312286817e-03,2.081234173800035e-09
	1.000000000000000e+00,0.000000000000000e+00
	0.000000000000000e+00,0.000000000000000e+00
	4.385426262880383e-05,1.656371542019224e-13
	4.385426259083634e-05,1.629569589912273e-13
	-5.040722312286808e-07,-2.081234173800030e-13
	3.617348103607585e-05,5.850051671680839e-12
	-2.338894006865890e-05,-8.710446036898494e-14
	-1.228046873618827e-05,-5.554823793931851e-12
	5.040722312286818e-07,2.081234173800035e-13
	-3.617348103612805e-05,-5.850051671680840e-12
	5.040722312286818e-07,2.081234173800035e-13
20		1.584893192461113e+00,0.000000000000000e+00
	5.040722312286817e-03,2.129712345344801e-09
	1.000000000000000e+00,0.000000000000000e+00
	0.000000000000000e+00,0.000000000000000e+00
	4.385426262880383e-05,1.694953391561538e-13
	4.385426259083634e-05,1.667527141791051e-13
	-5.040722312286808e-07,-2.129712345344799e-13
	3.617348103607585e-05,5.986316880111314e-12
	-2.338894006865890e-05,-8.913338389197895e-14
	-1.228046873618827e-05,-5.684212261684855e-12
	5.040722312286818e-07,2.129712345344801e-13
	-3.617348103612805e-05,-5.986316880111316e-12
	5.040722312286818e-07,2.129712345344801e-13
21		1.621810097358929e+00,0.000000000000000e+00
	5.040722312286817e-03,2.179319718565144e-09
	1.000000000000000e+00,0.000000000000000e+00
	0.000000000000000e+00,0.000000000000000e+00
	4.385426262880383e-05,1.734433927827419e-13
	4.385426259083634e-05,1.706368838632737e-13
	-5.040722312286817e-07,-2.179319718565149e-13
	3.617348103607585e-05,6.125756112989896e-12
	-2.338894006865890e-05,-9.120956711493228e-14
	-1.228046873618827e-05,-5.816614574018448e-12
	5.040722312286818e-07,2.179319718565144e-13
	-3.617348103612805e-05,-6.125756112989897e-12
	5.040722312286818e-07,2.179319718565144e-13
22		1.659586907437560e+00,0.000000000000000e+00
	5.040722312286817e-03,2.230082595946978e-09
	1.000000000000000e+00,0.000000000000000e+00
	0.000000000000000e+00,0.000000000000000e+00
	4.385426262880383e-05,1.774834083919781e-13
	4.385426259083634e-05,1.746115274819129e-13
	-5.040722312286817e-07,-2.230082595946978e-13
	3.617348103607585e-05,6.268443302843552e-12
	-2.338894006865890e-05,-9.333411085767133e-14
	-1.228046873618827e-05,-5.952100932391183e-12
	5.040722312286818e-07,2.230082595946978e-13
	-3.617348103612805e-05,-6.268443302843552e-12
	5.040722312286818e-07,2.230082595946978e-13
23		1.698243652461743e+00,0.000000000000000e+00
	5.040722312286818e-03,2.282027892639815e-09
	1.000000000000000e+00,0.000000000000000e+00
	0.000000000000000e+00,0.000000000000000e+00
	4.385426262880383e-05,1.816175280536144e-13
	4.385426259083634e-05,1.786787524436799e-13
	-5.040722312286808e-07,-2.282027892639814e-13
	3.617348103607585e-05,6.414454104309030e-12
	-2.338894006865890e-05,-9.550814158141013e-14
	-1.228046873618827e-05,-6.090743173463638e-12
	5.040722312286818e-07,2.282027892639815e-13
	-3.617348103612805e-05,-6.414454104309032e-12
	5.040722312286818e-07,2.282027892639815e-13
24		1.737800828749374e+00,0.000000000000000e+00
	5.040722312286818e-03,2.335183150727539e-09
	1.000000000000000e+00,0.000000000000000e+00
	0.000000000000000e+00,0.000000000000000e+00
	4.385426262880383e-05,1.858479437326168e-13
	4.385426259083634e-05,1.828407152450852e-13
	-5.040722312286817e-07,-2.335183150727537e-13
	3.617348103607585e-05,6.563865934245951e-12
	-2.338894006865890e-05,-9.773281198601505e-14
	-1.228046873618827e-05,-6.232614807187183e-12
	5.040722312286818e-07,2.335183150727539e-13
	-3.617348103612805e-05,-6.563865934245954e-12
	5.040722312286818e-07,2.335183150727539e-13
25		1.778279410038922e+00,0.000000000000000e+00
	5.040722312286818e-03,2.389576553831583e-09
	1.000000000000000e+00,0.000000000000000e+00
	0.000000000000000e+00,0.000000000000000e+00
	4.385426262880382e-05,1.901768984513747e-13
	4.385426259083633e-05,1.870996226138966e-13
	-5.040722312286817e-07,-2.389576553831584e-13
	3.617348103607585e-05,6.716758012784247e-12
	-2.338894006865889e-05,-1.000093016211817e-13
	-1.228046873618827e-05,-6.377791055779907e-12
	5.040722312286818e-07,2.389576553831583e-13
	-3.617348103612805e-05,-6.716758012784250e-12
	5.040722312286818e-07,2.389576553831583e-13
26		1.819700858609982e+00,0.000000000000000e+00
	5.040722312286819e-03,2.445236942054252e-09
	1.000000000000000e+00,0.000000000000000e+00
	0.000000000000000e+00,0.000000000000000e+00
	4.385426262880382e-05,1.946066874789803e-13
	4.385426259083633e-05,1.914577326791740e-13
	-5.040722312286817e-07,-2.445236942054261e-13
	3.617348103607585e-05,6.873211405327725e-12
	-2.338894006865889e-05,-1.023388175118475e-13
	-1.228046873618827e-05,-6.526348893610451e-12
	5.040722312286819e-07,2.445236942054252e-13
	-3.617348103612805e-05,-6.873211405327724e-12
	5.040722312286819e-07,2.445236942054252e-13
27		1.862087136662866e+00,0.000000000000000e+00
	5.040722312286819e-03,2.502193827270137e-09
	1.000000000000000e+00,0.000000000000000e+00
	0.000000000000000e+00,0.000000000000000e+00
	4.385426262880382e-05,1.991396595482114e-13
	4.385426259083633e-05,1.959173561685607e-13
	-5.040722312286817e-07,-2.502193827270137e-13
	3.617348103607585e-05,7.033309065536014e-12
	-2.338894006865889e-05,-1.047225947981725e-13
	-1.228046873618827e-05,-6.678367088010827e-12
	5.040722312286819e-07,2.502193827270137e-13
	-3.617348103612805e-05,-7.033309065536015e-12
	5.040722312286819e-07,2.502193827270137e-13
28		1.905460717963246e+00,0.000000000000000e+00
	5.040722312286819e-03,2.560477408773691e-09
	1.000000000000000e+00,0.000000000000000e+00
	0.000000000000000e+00,0.000000000000000e+00
	4.385426262880382e-05,2.037782181008599e-13
	4.385426259083633e-05,2.004808576334607e-13
	-5.040722312286825e-07,-2.560477408773694e-13
	3.617348103607585e-05,7.197135879307702e-12
	-2.338894006865889e-05,-1.071618973904268e-13
	-1.228046873618827e-05,-6.833926241039906e-12
	5.040722312286819e-07,2.560477408773691e-13
	-3.617348103612805e-05,-7.197135879307703e-12
	5.040722312286819e-07,2.560477408773691e-13
29		1.949844599758044e+00,0.000000000000000e+00
	5.040722312286820e-03,2.620118589291302e-09
	1.000000000000000e+00,0.000000000000000e+00
	0.000000000000000e+00,0.000000000000000e+00
	4.385426262880382e-05,2.085248225620690e-13
	4.385426259083633e-05,2.051506567027559e-13
	-5.040722312286817e-07,-2.620118589291298e-13
	3.617348103607585e-05,7.364778709787956e-12
	-2.338894006865889e-05,-1.096580186391330e-13
	-1.228046873618827e-05,-6.993108832219693e-12
	5.040722312286820e-07,2.620118589291302e-13
	-3.617348103612805e-05,-7.364778709787957e-12
	5.040722312286820e-07,2.620118589291302e-13
30		1.995262314968878e+00,0.000000000000000e+00
	5.040722312286820e-03,2.681148991366325e-09
	1.000000000000000e+00,0.000000000000000e+00
	0.000000000000000e+00,0.000000000000000e+00
	4.385426262880382e-05,2.133819896443529e-13
	4.385426259083633e-05,2.099292293657249e-13
	-5.040722312286825e-07,-2.681148991366324e-13
	3.617348103607585e-05,7.536326443424507e-12
	-2.338894006865889e-05,-1.122122820208172e-13
	-1.228046873618828e-05,-7.155999262267058e-12
	5.040722312286820e-07,2.681148991366325e-13
	-3.617348103612805e-05,-7.536326443424508e-12
	5.040722312286820e-07,2.681148991366325e-13
31		2.041737944669527e+00,0.000000000000000e+00
	5.040722312286821e-03,2.743600974125771e-09
	1.000000000000000e+00,0.000000000000000e+00
	0.000000000000000e+00,0.000000000000000e+00
	4.385426262880382e-05,2.183522946819908e-13
	4.385426259083633e-05,2.148191092848453e-13
	-5.040722312286817e-07,-2.743600974125775e-13
	3.617348103607585e-05,7.711870037096435e-12
	-2.338894006865889e-05,-1.148260418397338e-13
	-1.228046873618828e-05,-7.322683897844125e-12
	5.040722312286821e-07,2.743600974125771e-13
	-3.617348103612805e-05,-7.711870037096438e-12
	5.040722312286821e-07,2.743600974125771e-13
32		2.089296130854037e+00,0.000000000000000e+00
	5.040722312286821e-03,2.807507650437553e-09
	1.000000000000000e+00,0.000000000000000e+00
	0.000000000000000e+00,0.000000000000000e+00
	4.385426262880382e-05,2.234383729965033e-13
	4.385426259083633e-05,2.198228891391757e-13
	-5.040722312286817e-07,-2.807507650437553e-13
	3.617348103607585e-05,7.891502566340705e-12
	-2.338894006865889e-05,-1.175006839459363e-13
	-1.228046873618828e-05,-7.493251117351012e-12
	5.040722312286821e-07,2.807507650437553e-13
	-3.617348103612805e-05,-7.891502566340707e-12
	5.040722312286821e-07,2.807507650437553e-13
33		2.137962089502230e+00,0.000000000000000e+00
	5.040722312286821e-03,2.872902904467352e-09
	1.000000000000000e+00,0.000000000000000e+00
	0.000000000000000e+00,0.000000000000000e+00
	4.385426262880382e-05,2.286429212939351e-13
	4.385426259083633e-05,2.249432219990276e-13
	-5.040722312286817e-07,-2.872902904467363e-13
	3.617348103607585e-05,8.075319274702029e-12
	-2.338894006865889e-05,-1.202376264700723e-13
	-1.228046873618828e-05,-7.667791357785221e-12
	5.040722312286822e-07,2.872902904467353e-13
	-3.617348103612805e-05,-8.075319274702032e-12
	5.040722312286822e-07,2.872902904467353e-13
34		2.187761623949550e+00,0.000000000000000e+00
	5.040722312286821e-03,2.939821409644467e-09
	1.000000000000000e+00,0.000000000000000e+00
	0.000000000000000e+00,0.000000000000000e+00
	4.385426262880382e-05,2.339686990946838e-13
	4.385426259083633e-05,2.301828227326589e-13
	-5.040722312286825e-07,-2.939821409644472e-13
	3.617348103607585e-05,8.263417624232289e-12
	-2.338894006865889e-05,-1.230383205752959e-13
	-1.228046873618828e-05,-7.846397162692547e-12
	5.040722312286822e-07,2.939821409644467e-13
	-3.617348103612805e-05,-8.263417624232289e-12
	5.040722312286822e-07,2.939821409644467e-13
35		2.238721138568337e+00,0.000000000000000e+00
	5.040722312286822e-03,3.008298647046111e-09
	1.000000000000000e+00,0.000000000000000e+00
	0.000000000000000e+00,0.000000000000000e+00
	4.385426262880382e-05,2.394185301966344e-13
	4.385426259083633e-05,2.355444694457329e-13
	-5.040722312286817e-07,-3.008298647046112e-13
	3.617348103607585e-05,8.455897347166177e-12
	-2.338894006865889e-05,-1.259042512266932e-13
	-1.228046873618828e-05,-8.029163231234872e-12
	5.040722312286823e-07,3.008298647046111e-13
	-3.617348103612805e-05,-8.455897347166179e-12
	5.040722312286823e-07,3.008298647046111e-13
36		2.290867652767770e+00,0.000000000000000e+00
	5.040722312286822e-03,3.078370924209958e-09
	1.000000000000000e+00,0.000000000000000e+00
	0.000000000000000e+00,0.000000000000000e+00
	4.385426262880381e-05,2.449953041723741e-13
	4.385426259083633e-05,2.410310049543067e-13
	-5.040722312286825e-07,-3.078370924209960e-13
	3.617348103607585e-05,8.652860498800568e-12
	-2.338894006865889e-05,-1.288369379786307e-13
	-1.228046873618828e-05,-8.216186468400942e-12
	5.040722312286823e-07,3.078370924209959e-13
	-3.617348103612805e-05,-8.652860498800569e-12
	5.040722312286823e-07,3.078370924209959e-13
37		2.344228815319919e+00,0.000000000000000e+00
	5.040722312286823e-03,3.150075394384879e-09
	1.000000000000000e+00,0.000000000000000e+00
	0.000000000000000e+00,0.000000000000000e+00
	4.385426262880381e-05,2.507019779012822e-13
	4.385426259083633e-05,2.466453382921297e-13
	-5.040722312286817e-07,-3.150075394384890e-13
	3.617348103607585e-05,8.854411511605574e-12
	-2.338894006865889e-05,-1.318379357804430e-13
	-1.228046873618828e-05,-8.407566036386642e-12
	5.040722312286823e-07,3.150075394384880e-13
	-3.617348103612805e-05,-8.854411511605574e-12
	5.040722312286823e-07,3.150075394384880e-13
38		2.398832919019488e+00,0.000000000000000e+00
	5.040722312286823e-03,3.223450076230080e-09
	1.000000000000000e+00,0.000000000000000e+00
	0.000000000000000e+00,0.000000000000000e+00
	4.385426262880381e-05,2.565415771373066e-13
	4.385426259083633e-05,2.523904462530523e-13
	-5.040722312286825e-07,-3.223450076230082e-13
	3.617348103607585e-05,9.060657250596021e-12
	-2.338894006865889e-05,-1.349088358008874e-13
	-1.228046873618828e-05,-8.603403407172126e-12
	5.040722312286823e-07,3.223450076230080e-13
	-3.617348103612805e-05,-9.060657250596023e-12
	5.040722312286823e-07,3.223450076230080e-13
39		2.454708915685027e+00,0.000000000000000e+00
	5.040722312286824e-03,3.298533873973103e-09
	1.000000000000000e+00,0.000000000000000e+00
	0.000000000000000e+00,0.000000000000000e+00
	4.385426262880381e-05,2.625171981132584e-13
	4.385426259083633e-05,2.582693749693608e-13
	-5.040722312286825e-07,-3.298533873973102e-13
	3.617348103607585e-05,9.271707069992712e-12
	-2.338894006865889e-05,-1.380512662718030e-13
	-1.228046873618828e-05,-8.803802416323599e-12
	5.040722312286824e-07,3.298533873973103e-13
	-3.617348103612805e-05,-9.271707069992714e-12
	5.040722312286824e-07,3.298533873973103e-13
40		2.511886431509577e+00,0.000000000000000e+00
	5.040722312286825e-03,3.375366598037365e-09
	1.000000000000000e+00,0.000000000000000e+00
	0.000000000000000e+00,0.000000000000000e+00
	4.385426262880381e-05,2.686320091824757e-13
	4.385426259083633e-05,2.642852415268773e-13
	-5.040722312286825e-07,-3.375366598037368e-13
	3.617348103607585e-05,9.487672871203467e-12
	-2.338894006865889e-05,-1.412668933514204e-13
	-1.228046873618828e-05,-9.008869318048308e-12
	5.040722312286825e-07,3.375366598037365e-13
	-3.617348103612805e-05,-9.487672871203468e-12
	5.040722312286825e-07,3.375366598037365e-13
41		2.570395782768860e+00,0.000000000000000e+00
	5.040722312286825e-03,3.453988986150164e-09
	1.000000000000000e+00,0.000000000000000e+00
	0.000000000000000e+00,0.000000000000000e+00
	4.385426262880381e-05,2.748892524987265e-13
	4.385426259083633e-05,2.704412356176799e-13
	-5.040722312286834e-07,-3.453988986150168e-13
	3.617348103607585e-05,9.708669162154726e-12
	-2.338894006865889e-05,-1.445574220077811e-13
	-1.228046873618828e-05,-9.218712841531929e-12
	5.040722312286825e-07,3.453988986150164e-13
	-3.617348103612805e-05,-9.708669162154728e-12
	5.040722312286825e-07,3.453988986150164e-13
42		2.630267991895378e+00,0.000000000000000e+00
	5.040722312286826e-03,3.534442724942370e-09
	1.000000000000000e+00,0.000000000000000e+00
	0.000000000000000e+00,0.000000000000000e+00
	4.385426262880381e-05,2.812922457352416e-13
	4.385426259083633e-05,2.767406212313203e-13
	-5.040722312286825e-07,-3.534442724942359e-13
	3.617348103607586e-05,9.934813118005193e-12
	-2.338894006865889e-05,-1.479245969227342e-13
	-1.228046873618829e-05,-9.433444248588222e-12
	5.040722312286826e-07,3.534442724942370e-13
	-3.617348103612805e-05,-9.934813118005196e-12
	5.040722312286826e-07,3.534442724942370e-13
43		2.691534803926912e+00,0.000000000000000e+00
	5.040722312286827e-03,3.616770472051220e-09
	1.000000000000000e+00,0.000000000000000e+00
	0.000000000000000e+00,0.000000000000000e+00
	4.385426262880381e-05,2.878443838437886e-13
	4.385426259083633e-05,2.831867383854325e-13
	-5.040722312286825e-07,-3.616770472051211e-13
	3.617348103607586e-05,1.016622464327362e-11
	-2.338894006865889e-05,-1.513702034169890e-13
	-1.228046873618829e-05,-9.653177392651512e-12
	5.040722312286827e-07,3.616770472051220e-13
	-3.617348103612805e-05,-1.016622464327363e-11
	5.040722312286827e-07,3.616770472051220e-13
44		2.754228703338163e+00,0.000000000000000e+00
	5.040722312286828e-03,3.701015878737968e-09
	1.000000000000000e+00,0.000000000000000e+00
	0.000000000000000e+00,0.000000000000000e+00
	4.385426262880380e-05,2.945491408547203e-13
	4.385426259083632e-05,2.897830048966563e-13
	-5.040722312286825e-07,-3.701015878737963e-13
	3.617348103607586e-05,1.040302643541381e-11
	-2.338894006865889e-05,-1.548960683967171e-13
	-1.228046873618829e-05,-9.878028779143294e-12
	5.040722312286827e-07,3.701015878737968e-13
	-3.617348103612805e-05,-1.040302643541381e-11
	5.040722312286827e-07,3.701015878737968e-13
45		2.818382931264450e+00,0.000000000000000e+00
	5.040722312286828e-03,3.787223613032362e-09
	1.000000000000000e+00,0.000000000000000e+00
	0.000000000000000e+00,0.000000000000000e+00
	4.385426262880380e-05,3.014100717189522e-13
	4.385426259083632e-05,2.965329181928079e-13
	-5.040722312286817e-07,-3.787223613032336e-13
	3.617348103607586e-05,1.064534404987038e-11
	-2.338894006865889e-05,-1.585040613222010e-13
	-1.228046873618829e-05,-1.010811762724495e-11
	5.040722312286828e-07,3.787223613032362e-13
	-3.617348103612805e-05,-1.064534404987039e-11
	5.040722312286828e-07,3.787223613032362e-13
46		2.884031503126602e+00,0.000000000000000e+00
	5.040722312286828e-03,3.875439383416213e-09
	1.000000000000000e+00,0.000000000000000e+00
	0.000000000000000e+00,0.000000000000000e+00
	4.385426262880380e-05,3.084308141928432e-13
	4.385426259083632e-05,3.034400571672624e-13
	-5.040722312286825e-07,-3.875439383416208e-13
	3.617348103607586e-05,1.089330596664998e-11
	-2.338894006865889e-05,-1.621960951990472e-13
	-1.228046873618829e-05,-1.034356593310932e-11
	5.040722312286828e-07,3.875439383416213e-13
	-3.617348103612805e-05,-1.089330596664999e-11
	5.040722312286828e-07,3.875439383416213e-13
47		2.951209226666381e+00,0.000000000000000e+00
	5.040722312286829e-03,3.965709963058657e-09
	1.000000000000000e+00,0.000000000000000e+00
	0.000000000000000e+00,0.000000000000000e+00
	4.385426262880380e-05,3.156150907669839e-13
	4.385426259083632e-05,3.105080840765310e-13
	-5.040722312286825e-07,-3.965709963058651e-13
	3.617348103607586e-05,1.114704365844305e-11
	-2.338894006865889e-05,-1.659741275924871e-13
	-1.228046873618829e-05,-1.058449853454470e-11
	5.040722312286829e-07,3.965709963058657e-13
	-3.617348103612805e-05,-1.114704365844306e-11
	5.040722312286829e-07,3.965709963058657e-13
48		3.019951720402012e+00,0.000000000000000e+00
	5.040722312286830e-03,4.058083214615892e-09
	1.000000000000000e+00,0.000000000000000e+00
	0.000000000000000e+00,0.000000000000000e+00
	4.385426262880380e-05,3.229667106399088e-13
	4.385426259083632e-05,3.177407464820375e-13
	-5.040722312286834e-07,-4.058083214615892e-13
	3.617348103607586e-05,1.140669166033240e-11
	-2.338894006865889e-05,-1.698401616653038e-13
	-1.228046873618829e-05,-1.083104317720551e-11
	5.040722312286830e-07,4.058083214615892e-13
	-3.617348103612805e-05,-1.140669166033240e-11
	5.040722312286830e-07,4.058083214615892e-13
49		3.090295432513586e+00,0.000000000000000e+00
	5.040722312286831e-03,4.152608115608598e-09
	1.000000000000000e+00,0.000000000000000e+00
	0.000000000000000e+00,0.000000000000000e+00