Title: * GA CMOS Amp | W=1.7972207881656967e-05 L=8.065802983712611e-07 Vbias=1.2366145609112278
Date: Sat Sep  6 22:15:40 2025
Plotname: AC Analysis
Flags: complex forward log
No. Variables: 13
No. Points:          901
Offset:    0.0000000000000000e+00
Command: Linear Technology Corporation LTspice
Variables:
	0	frequency	frequency
	1	V(out)	voltage
	2	V(g)	voltage
	3	V(vdd)	voltage
	4	V(m1#dbody)	voltage
	5	V(m1#sbody)	voltage
	6	Id(M1)	device_current
	7	Ig(M1)	device_current
	8	Ib(M1)	device_current
	9	Is(M1)	device_current
	10	I(Rload)	device_current
	11	I(Vg)	device_current
	12	I(Vdd)	device_current
Values:
0		1.000000000000000e+00,0.000000000000000e+00
	9.068896535196479e-03,9.037091064761547e-10
	1.000000000000000e+00,0.000000000000000e+00
	0.000000000000000e+00,0.000000000000000e+00
	6.950368292404026e-05,8.810277149885560e-14
	6.950368285493929e-05,8.434402692668881e-14
	-9.068896535196507e-07,-9.037091064761552e-14
	5.315553756328448e-05,3.779141303528231e-12
	-3.706863088860028e-05,-4.525290058259616e-14
	-1.518001702116454e-05,-3.643517492298020e-12
	9.068896535196479e-07,9.037091064761547e-14
	-5.315553756329860e-05,-3.779141303528232e-12
	9.068896535196479e-07,9.037091064761547e-14
1		1.023292992280754e+00,0.000000000000000e+00
	9.068896535196479e-03,9.247591957173508e-10
	1.000000000000000e+00,0.000000000000000e+00
	0.000000000000000e+00,0.000000000000000e+00
	6.950368292404026e-05,9.015494867529148e-14
	6.950368285493929e-05,8.630865169481988e-14
	-9.068896535196507e-07,-9.247591957173557e-14
	5.315553756328448e-05,3.867168812739195e-12
	-3.706863088860028e-05,-4.630697604654830e-14
	-1.518001702116454e-05,-3.728385917120912e-12
	9.068896535196479e-07,9.247591957173509e-14
	-5.315553756329860e-05,-3.867168812739194e-12
	9.068896535196479e-07,9.247591957173509e-14
2		1.047128548050899e+00,0.000000000000000e+00
	9.068896535196479e-03,9.462996045247518e-10
	1.000000000000000e+00,0.000000000000000e+00
	0.000000000000000e+00,0.000000000000000e+00
	6.950368292404026e-05,9.225492719885680e-14
	6.950368285493929e-05,8.831903845250960e-14
	-9.068896535196507e-07,-9.462996045247469e-14
	5.315553756328448e-05,3.957246746042701e-12
	-3.706863088860028e-05,-4.738560408214561e-14
	-1.518001702116454e-05,-3.815231181508081e-12
	9.068896535196479e-07,9.462996045247518e-14
	-5.315553756329860e-05,-3.957246746042701e-12
	9.068896535196479e-07,9.462996045247518e-14
3		1.071519305237606e+00,0.000000000000000e+00
	9.068896535196479e-03,9.683417539082271e-10
	1.000000000000000e+00,0.000000000000000e+00
	0.000000000000000e+00,0.000000000000000e+00
	6.950368292404026e-05,9.440382050596129e-14
	6.950368285493929e-05,9.037625313342751e-14
	-9.068896535196507e-07,-9.683417539082314e-14
	5.315553756328448e-05,4.049422863951313e-12
	-3.706863088860028e-05,-4.848935659224988e-14
	-1.518001702116454e-05,-3.904099331968240e-12
	9.068896535196479e-07,9.683417539082271e-14
	-5.315553756329860e-05,-4.049422863951313e-12
	9.068896535196479e-07,9.683417539082271e-14
4		1.096478196143185e+00,0.000000000000000e+00
	9.068896535196479e-03,9.908973309071432e-10
	1.000000000000000e+00,0.000000000000000e+00
	0.000000000000000e+00,0.000000000000000e+00
	6.950368292404026e-05,9.660276796828035e-14
	6.950368285493929e-05,9.248138650002792e-14
	-9.068896535196507e-07,-9.908973309071413e-14
	5.315553756328448e-05,4.143746039462839e-12
	-3.706863088860028e-05,-4.961881880105190e-14
	-1.518001702116454e-05,-3.995037487571073e-12
	9.068896535196479e-07,9.908973309071432e-14
	-5.315553756329860e-05,-4.143746039462839e-12
	9.068896535196479e-07,9.908973309071432e-14
5		1.122018454301963e+00,0.000000000000000e+00
	9.068896535196479e-03,1.013978294786983e-09
	1.000000000000000e+00,0.000000000000000e+00
	0.000000000000000e+00,0.000000000000000e+00
	6.950368292404026e-05,9.885293549686502e-14
	6.950368285493929e-05,9.463555472188653e-14
	-9.068896535196507e-07,-1.013978294786982e-13
	5.315553756328448e-05,4.240266283973453e-12
	-3.706863088860028e-05,-5.077458956436495e-14
	-1.518001702116454e-05,-4.088093864930390e-12
	9.068896535196479e-07,1.013978294786983e-13
	-5.315553756329860e-05,-4.240266283973453e-12
	9.068896535196479e-07,1.013978294786983e-13
6		1.148153621496882e+00,0.000000000000000e+00
	9.068896535196479e-03,1.037596883380309e-09
	1.000000000000000e+00,0.000000000000000e+00
	0.000000000000000e+00,0.000000000000000e+00
	6.950368292404026e-05,1.011555161603234e-13
	6.950368285493929e-05,9.683989996750833e-14
	-9.068896535196507e-07,-1.037596883380307e-13
	5.315553756328448e-05,4.339034773794387e-12
	-3.706863088860028e-05,-5.195728168714616e-14
	-1.518001702116454e-05,-4.183317803769211e-12
	9.068896535196479e-07,1.037596883380309e-13
	-5.315553756329860e-05,-4.339034773794388e-12
	9.068896535196479e-07,1.037596883380309e-13
7		1.174897554939529e+00,0.000000000000000e+00
	9.068896535196479e-03,1.061765619575421e-09
	1.000000000000000e+00,0.000000000000000e+00
	0.000000000000000e+00,0.000000000000000e+00
	6.950368292404026e-05,1.035117308174015e-13
	6.950368285493929e-05,9.909559100992048e-14
	-9.068896535196507e-07,-1.061765619575419e-13
	5.315553756328448e-05,4.440103877286305e-12
	-3.706863088860028e-05,-5.316752224841382e-14
	-1.518001702116454e-05,-4.280759793080349e-12
	9.068896535196479e-07,1.061765619575421e-13
	-5.315553756329860e-05,-4.440103877286304e-12
	9.068896535196479e-07,1.061765619575421e-13
8		1.202264434617413e+00,0.000000000000000e+00
	9.068896535196479e-03,1.086497317956161e-09
	1.000000000000000e+00,0.000000000000000e+00
	0.000000000000000e+00,0.000000000000000e+00
	6.950368292404026e-05,1.059228287642987e-13
	6.950368285493929e-05,1.014038238463713e-13
	-9.068896535196507e-07,-1.086497317956161e-13
	5.315553756328448e-05,4.543527182625681e-12
	-3.706863088860028e-05,-5.440595293373294e-14
	-1.518001702116454e-05,-4.380471497896332e-12
	9.068896535196479e-07,1.086497317956161e-13
	-5.315553756329860e-05,-4.543527182625680e-12
	9.068896535196479e-07,1.086497317956161e-13
9		1.230268770812381e+00,0.000000000000000e+00
	9.068896535196479e-03,1.111805091596374e-09
	1.000000000000000e+00,0.000000000000000e+00
	0.000000000000000e+00,0.000000000000000e+00
	6.950368292404026e-05,1.083900883970611e-13
	6.950368285493929e-05,1.037658223324638e-13
	-9.068896535196507e-07,-1.111805091596381e-13
	5.315553756328448e-05,4.649359526217979e-12
	-3.706863088860028e-05,-5.567323037544546e-14
	-1.518001702116454e-05,-4.482505786682895e-12
	9.068896535196479e-07,1.111805091596374e-13
	-5.315553756329860e-05,-4.649359526217977e-12
	9.068896535196479e-07,1.111805091596374e-13
10		1.258925411794167e+00,0.000000000000000e+00
	9.068896535196479e-03,1.137702359012632e-09
	1.000000000000000e+00,0.000000000000000e+00
	0.000000000000000e+00,0.000000000000000e+00
	6.950368292404026e-05,1.109148178894041e-13
	6.950368285493929e-05,1.061828388310600e-13
	-9.068896535196507e-07,-1.137702359012630e-13
	5.315553756328448e-05,4.757657021772625e-12
	-3.706863088860028e-05,-5.697002650082536e-14
	-1.518001702116454e-05,-4.586916759370536e-12
	9.068896535196479e-07,1.137702359012632e-13
	-5.315553756329860e-05,-4.757657021772624e-12
	9.068896535196479e-07,1.137702359012632e-13
11		1.288249551693134e+00,0.000000000000000e+00
	9.068896535196479e-03,1.164202851278909e-09
	1.000000000000000e+00,0.000000000000000e+00
	0.000000000000000e+00,0.000000000000000e+00
	6.950368292404026e-05,1.134983558863233e-13
	6.950368285493929e-05,1.086561548763005e-13
	-9.068896535196507e-07,-1.164202851278910e-13
	5.315553756328448e-05,4.868477090055249e-12
	-3.706863088860028e-05,-5.829702888834345e-14
	-1.518001702116454e-05,-4.693759776039015e-12
	9.068896535196479e-07,1.164202851278909e-13
	-5.315553756329860e-05,-4.868477090055250e-12
	9.068896535196479e-07,1.164202851278909e-13
12		1.318256738556407e+00,0.000000000000000e+00
	9.068896535196479e-03,1.191320619306980e-09
	1.000000000000000e+00,0.000000000000000e+00
	0.000000000000000e+00,0.000000000000000e+00
	6.950368292404026e-05,1.161420722138617e-13
	6.950368285493929e-05,1.111870818530905e-13
	-9.068896535196507e-07,-1.191320619306979e-13
	5.315553756328448e-05,4.981878489332935e-12
	-3.706863088860028e-05,-5.965494113223053e-14
	-1.518001702116454e-05,-4.803091486270007e-12
	9.068896535196479e-07,1.191320619306980e-13
	-5.315553756329860e-05,-4.981878489332934e-12
	9.068896535196479e-07,1.191320619306980e-13
13		1.348962882591653e+00,0.000000000000000e+00
	9.068896535196479e-03,1.219070041296401e-09
	1.000000000000000e+00,0.000000000000000e+00
	0.000000000000000e+00,0.000000000000000e+00
	6.950368292404026e-05,1.188473686054100e-13
	6.950368285493929e-05,1.137769616924141e-13
	-9.068896535196507e-07,-1.219070041296391e-13
	5.315553756328448e-05,5.097921346528621e-12
	-3.706863088860028e-05,-6.104448321553242e-14
	-1.518001702116454e-05,-4.914969859183450e-12
	9.068896535196479e-07,1.219070041296401e-13
	-5.315553756329860e-05,-5.097921346528622e-12
	9.068896535196479e-07,1.219070041296401e-13
14		1.380384264602885e+00,0.000000000000000e+00
	9.068896535196479e-03,1.247465830358017e-09
	1.000000000000000e+00,0.000000000000000e+00
	0.000000000000000e+00,0.000000000000000e+00
	6.950368292404026e-05,1.216156794449238e-13
	6.950368285493929e-05,1.164271675828432e-13
	-9.068896535196507e-07,-1.247465830358019e-13
	5.315553756328448e-05,5.216667189101207e-12
	-3.706863088860028e-05,-6.246639189185444e-14
	-1.518001702116454e-05,-5.029454214173550e-12
	9.068896535196479e-07,1.247465830358017e-13
	-5.315553756329860e-05,-5.216667189101204e-12
	9.068896535196479e-07,1.247465830358017e-13
15		1.412537544622754e+00,0.000000000000000e+00
	9.068896535196479e-03,1.276523042315051e-09
	1.000000000000000e+00,0.000000000000000e+00
	0.000000000000000e+00,0.000000000000000e+00
	6.950368292404026e-05,1.244484725274530e-13
	6.950368285493929e-05,1.191391046986204e-13
	-9.068896535196507e-07,-1.276523042315049e-13
	5.315553756328448e-05,5.338178977668203e-12
	-3.706863088860028e-05,-6.392142107599796e-14
	-1.518001702116455e-05,-5.146605252360700e-12
	9.068896535196479e-07,1.276523042315051e-13
	-5.315553756329860e-05,-5.338178977668204e-12
	9.068896535196479e-07,1.276523042315051e-13
16		1.445439770745927e+00,0.000000000000000e+00
	9.068896535196479e-03,1.306257083685899e-09
	1.000000000000000e+00,0.000000000000000e+00
	0.000000000000000e+00,0.000000000000000e+00
	6.950368292404026e-05,1.273472498373866e-13
	6.950368285493929e-05,1.219142109447013e-13
	-9.068896535196507e-07,-1.306257083685905e-13
	5.315553756328448e-05,5.462521139388312e-12
	-3.706863088860028e-05,-6.541034224369602e-14
	-1.518001702116455e-05,-5.266485088776025e-12
	9.068896535196479e-07,1.306257083685900e-13
	-5.315553756329860e-05,-5.462521139388311e-12
	9.068896535196479e-07,1.306257083685900e-13
17		1.479108388168207e+00,0.000000000000000e+00
	9.068896535196479e-03,1.336683719852876e-09
	1.000000000000000e+00,0.000000000000000e+00
	0.000000000000000e+00,0.000000000000000e+00
	6.950368292404026e-05,1.303135483448241e-13
	6.950368285493929e-05,1.247539577191505e-13
	-9.068896535196507e-07,-1.336683719852870e-13
	5.315553756328448e-05,5.589759602121540e-12
	-3.706863088860028e-05,-6.693394484065988e-14
	-1.518001702116455e-05,-5.389157285295593e-12
	9.068896535196479e-07,1.336683719852876e-13
	-5.315553756329860e-05,-5.589759602121538e-12
	9.068896535196479e-07,1.336683719852876e-13
18		1.513561248436208e+00,0.000000000000000e+00
	9.068896535196479e-03,1.367819083421218e-09
	1.000000000000000e+00,0.000000000000000e+00
	0.000000000000000e+00,0.000000000000000e+00
	6.950368292404026e-05,1.333489408204978e-13
	6.950368285493929e-05,1.276598506932962e-13
	-9.068896535196507e-07,-1.367819083421222e-13
	5.315553756328448e-05,5.719961829385028e-12
	-3.706863088860028e-05,-6.849303670115383e-14
	-1.518001702116455e-05,-5.514686884341752e-12
	9.068896535196479e-07,1.367819083421218e-13
	-5.315553756329860e-05,-5.719961829385029e-12
	9.068896535196479e-07,1.367819083421218e-13
19		1.548816618912481e+00,0.000000000000000e+00
	9.068896535196479e-03,1.399679682772817e-09
	1.000000000000000e+00,0.000000000000000e+00
	0.000000000000000e+00,0.000000000000000e+00
	6.950368292404026e-05,1.364550366696764e-13
	6.950368285493929e-05,1.306334306100574e-13
	-9.068896535196507e-07,-1.399679682772821e-13
	5.315553756328448e-05,5.853196856123103e-12
	-3.706863088860028e-05,-7.008844447631918e-14
	-1.518001702116455e-05,-5.643140443369501e-12
	9.068896535196479e-07,1.399679682772817e-13
	-5.315553756329860e-05,-5.853196856123100e-12
	9.068896535196479e-07,1.399679682772817e-13
20		1.584893192461113e+00,0.000000000000000e+00
	9.068896535196479e-03,1.432282410819173e-09
	1.000000000000000e+00,0.000000000000000e+00
	0.000000000000000e+00,0.000000000000000e+00
	6.950368292404026e-05,1.396334827854932e-13
	6.950368285493929e-05,1.336762741008659e-13
	-9.068896535196507e-07,-1.432282410819176e-13
	5.315553756328448e-05,5.989535325310511e-12
	-3.706863088860028e-05,-7.172101407247616e-14
	-1.518001702116455e-05,-5.774586070156118e-12
	9.068896535196479e-07,1.432282410819173e-13
	-5.315553756329860e-05,-5.989535325310510e-12
	9.068896535196479e-07,1.432282410819173e-13
21		1.621810097358929e+00,0.000000000000000e+00
	9.068896535196479e-03,1.465644553958243e-09
	1.000000000000000e+00,0.000000000000000e+00
	0.000000000000000e+00,0.000000000000000e+00
	6.950368292404026e-05,1.428859644221505e-13
	6.950368285493929e-05,1.367899945216173e-13
	-9.068896535196541e-07,-1.465644553958234e-13
	5.315553756328448e-05,6.129049525408273e-12
	-3.706863088860028e-05,-7.339161109963422e-14
	-1.518001702116455e-05,-5.909093458912815e-12
	9.068896535196479e-07,1.465644553958243e-13
	-5.315553756329860e-05,-6.129049525408272e-12
	9.068896535196479e-07,1.465644553958243e-13
22		1.659586907437560e+00,0.000000000000000e+00
	9.068896535196481e-03,1.499783801239922e-09
	1.000000000000000e+00,0.000000000000000e+00
	0.000000000000000e+00,0.000000000000000e+00
	6.950368292404026e-05,1.462142060884637e-13
	6.950368285493929e-05,1.399762428080937e-13
	-9.068896535196507e-07,-1.499783801239921e-13
	5.315553756328448e-05,6.271813428691968e-12
	-3.706863088860028e-05,-7.510112133045011e-14
	-1.518001702116455e-05,-6.046733927237525e-12
	9.068896535196482e-07,1.499783801239922e-13
	-5.315553756329860e-05,-6.271813428691966e-12
	9.068896535196482e-07,1.499783801239922e-13
23		1.698243652461743e+00,0.000000000000000e+00
	9.068896535196481e-03,1.534718253745003e-09
	1.000000000000000e+00,0.000000000000000e+00
	0.000000000000000e+00,0.000000000000000e+00
	6.950368292404025e-05,1.496199724622190e-13
	6.950368285493928e-05,1.432367083513117e-13
	-9.068896535196507e-07,-1.534718253745008e-13
	5.315553756328448e-05,6.417902730472820e-12
	-3.706863088860028e-05,-7.685045116987627e-14
	-1.518001702116455e-05,-6.187580453928443e-12
	9.068896535196482e-07,1.534718253745004e-13
	-5.315553756329860e-05,-6.417902730472819e-12
	9.068896535196482e-07,1.534718253745004e-13
24		1.737800828749374e+00,0.000000000000000e+00
	9.068896535196481e-03,1.570466434182618e-09
	1.000000000000000e+00,0.000000000000000e+00
	0.000000000000000e+00,0.000000000000000e+00
	6.950368292404025e-05,1.531050693258280e-13
	6.950368285493928e-05,1.465731198932593e-13
	-9.068896535196507e-07,-1.570466434182625e-13
	5.315553756328448e-05,6.567394889232353e-12
	-3.706863088860028e-05,-7.864052813574865e-14
	-1.518001702116455e-05,-6.331707717678342e-12
	9.068896535196482e-07,1.570466434182618e-13
	-5.315553756329860e-05,-6.567394889232352e-12
	9.068896535196482e-07,1.570466434182618e-13
25		1.778279410038922e+00,0.000000000000000e+00
	9.068896535196481e-03,1.607047296711217e-09
	1.000000000000000e+00,0.000000000000000e+00
	0.000000000000000e+00,0.000000000000000e+00
	6.950368292404025e-05,1.566713445237788e-13
	6.950368285493928e-05,1.499872464434990e-13
	-9.068896535196507e-07,-1.607047296711214e-13
	5.315553756328448e-05,6.720369167691906e-12
	-3.706863088860028e-05,-8.047230135056905e-14
	-1.518001702116455e-05,-6.479192136670216e-12
	9.068896535196482e-07,1.607047296711217e-13
	-5.315553756329860e-05,-6.720369167691906e-12
	9.068896535196482e-07,1.607047296711217e-13
26		1.819700858609982e+00,0.000000000000000e+00
	9.068896535196481e-03,1.644480236988318e-09
	1.000000000000000e+00,0.000000000000000e+00
	0.000000000000000e+00,0.000000000000000e+00
	6.950368292404025e-05,1.603206889423866e-13
	6.950368285493928e-05,1.534808982171191e-13
	-9.068896535196507e-07,-1.644480236988318e-13
	5.315553756328448e-05,6.876906674838771e-12
	-3.706863088860028e-05,-8.234674204474239e-14
	-1.518001702116455e-05,-6.630111909095197e-12
	9.068896535196482e-07,1.644480236988319e-13
	-5.315553756329860e-05,-6.876906674838772e-12
	9.068896535196482e-07,1.644480236988319e-13
27		1.862087136662866e+00,0.000000000000000e+00
	9.068896535196481e-03,1.682785102454340e-09
	1.000000000000000e+00,0.000000000000000e+00
	0.000000000000000e+00,0.000000000000000e+00
	6.950368292404025e-05,1.640550375123668e-13
	6.950368285493928e-05,1.570559275945336e-13
	-9.068896535196507e-07,-1.682785102454345e-13
	5.315553756328448e-05,7.037090408931258e-12
	-3.706863088860028e-05,-8.426484407153582e-14
	-1.518001702116455e-05,-6.784547054614287e-12
	9.068896535196482e-07,1.682785102454340e-13
	-5.315553756329860e-05,-7.037090408931256e-12
	9.068896535196482e-07,1.682785102454340e-13
28		1.905460717963246e+00,0.000000000000000e+00
	9.068896535196481e-03,1.721982202855977e-09
	1.000000000000000e+00,0.000000000000000e+00
	0.000000000000000e+00,0.000000000000000e+00
	6.950368292404025e-05,1.678763702347611e-13
	6.950368285493928e-05,1.607142301036398e-13
	-9.068896535196507e-07,-1.721982202855978e-13
	5.315553756328448e-05,7.201005301505463e-12
	-3.706863088860028e-05,-8.622762443403305e-14
	-1.518001702116455e-05,-6.942579456785831e-12
	9.068896535196482e-07,1.721982202855977e-13
	-5.315553756329860e-05,-7.201005301505459e-12
	9.068896535196482e-07,1.721982202855977e-13
29		1.949844599758044e+00,0.000000000000000e+00
	9.068896535196481e-03,1.762092321014698e-09
	1.000000000000000e+00,0.000000000000000e+00
	0.000000000000000e+00,0.000000000000000e+00
	6.950368292404025e-05,1.717867132307605e-13
	6.950368285493928e-05,1.644577454248512e-13
	-9.068896535196507e-07,-1.762092321014696e-13
	5.315553756328448e-05,7.368738262407100e-12
	-3.706863088860028e-05,-8.823612382436275e-14
	-1.518001702116455e-05,-7.104292906481267e-12
	9.068896535196482e-07,1.762092321014698e-13
	-5.315553756329860e-05,-7.368738262407098e-12
	9.068896535196482e-07,1.762092321014698e-13
30		1.995262314968878e+00,0.000000000000000e+00
	9.068896535196481e-03,1.803136723846069e-09
	1.000000000000000e+00,0.000000000000000e+00
	0.000000000000000e+00,0.000000000000000e+00
	6.950368292404025e-05,1.757881398159807e-13
	6.950368285493928e-05,1.682884584195425e-13
	-9.068896535196507e-07,-1.803136723846061e-13
	5.315553756328448e-05,7.540378225872244e-12
	-3.706863088860028e-05,-9.029140717548729e-14
	-1.518001702116455e-05,-7.269773146312150e-12
	9.068896535196482e-07,1.803136723846069e-13
	-5.315553756329860e-05,-7.540378225872244e-12
	9.068896535196482e-07,1.803136723846069e-13
31		2.041737944669527e+00,0.000000000000000e+00
	9.068896535196481e-03,1.845137173635759e-09
	1.000000000000000e+00,0.000000000000000e+00
	0.000000000000000e+00,0.000000000000000e+00
	6.950368292404025e-05,1.798827715997624e-13
	6.950368285493928e-05,1.722084001824489e-13
	-9.068896535196507e-07,-1.845137173635753e-13
	5.315553756328448e-05,7.716016197681451e-12
	-3.706863088860028e-05,-9.239456422584434e-14
	-1.518001702116455e-05,-7.439107916092031e-12
	9.068896535196482e-07,1.845137173635759e-13
	-5.315553756329860e-05,-7.716016197681449e-12
	9.068896535196482e-07,1.845137173635759e-13
32		2.089296130854037e+00,0.000000000000000e+00
	9.068896535196481e-03,1.888115939578189e-09
	1.000000000000000e+00,0.000000000000000e+00
	0.000000000000000e+00,0.000000000000000e+00
	6.950368292404025e-05,1.840727796100764e-13
	6.950368285493928e-05,1.762196491185797e-13
	-9.068896535196541e-07,-1.888115939578200e-13
	5.315553756328448e-05,7.895745303412221e-12
	-3.706863088860028e-05,-9.454671009714057e-14
	-1.518001702116455e-05,-7.612386999357260e-12
	9.068896535196482e-07,1.888115939578189e-13
	-5.315553756329860e-05,-7.895745303412221e-12
	9.068896535196482e-07,1.888115939578189e-13
33		2.137962089502230e+00,0.000000000000000e+00
	9.068896535196483e-03,1.932095809583953e-09
	1.000000000000000e+00,0.000000000000000e+00
	0.000000000000000e+00,0.000000000000000e+00
	6.950368292404025e-05,1.883603854446308e-13
	6.950368285493928e-05,1.803243320452160e-13
	-9.068896535196507e-07,-1.932095809583963e-13
	5.315553756328448e-05,8.079660837815401e-12
	-3.706863088860028e-05,-9.674898588560396e-14
	-1.518001702116455e-05,-7.789702270971401e-12
	9.068896535196483e-07,1.932095809583953e-13
	-5.315553756329860e-05,-8.079660837815398e-12
	9.068896535196483e-07,1.932095809583953e-13
34		2.187761623949550e+00,0.000000000000000e+00
	9.068896535196483e-03,1.977100102362269e-09
	1.000000000000000e+00,0.000000000000000e+00
	0.000000000000000e+00,0.000000000000000e+00
	6.950368292404025e-05,1.927478624487925e-13
	6.950368285493928e-05,1.845246253195773e-13
	-9.068896535196507e-07,-1.977100102362272e-13
	5.315553756328448e-05,8.267860315341746e-12
	-3.706863088860028e-05,-9.900255926700812e-14
	-1.518001702116455e-05,-7.971147745838510e-12
	9.068896535196483e-07,1.977100102362269e-13
	-5.315553756329860e-05,-8.267860315341746e-12
	9.068896535196483e-07,1.977100102362269e-13
35		2.238721138568337e+00,0.000000000000000e+00
	9.068896535196483e-03,2.023152679784872e-09
	1.000000000000000e+00,0.000000000000000e+00
	0.000000000000000e+00,0.000000000000000e+00
	6.950368292404025e-05,1.972375369209441e-13
	6.950368285493928e-05,1.888227559927553e-13
	-9.068896535196507e-07,-2.023152679784875e-13
	5.315553756328448e-05,8.460443521845355e-12
	-3.706863088860028e-05,-1.013086251157894e-13
	-1.518001702116455e-05,-8.156819628751079e-12
	9.068896535196483e-07,2.023152679784872e-13
	-5.315553756329860e-05,-8.460443521845352e-12
	9.068896535196483e-07,2.023152679784872e-13
36		2.290867652767770e+00,0.000000000000000e+00
	9.068896535196483e-03,2.070277959537887e-09
	1.000000000000000e+00,0.000000000000000e+00
	0.000000000000000e+00,0.000000000000000e+00
	6.950368292404025e-05,2.018317893459185e-13
	6.950368285493928e-05,1.932210029905252e-13
	-9.068896535196507e-07,-2.070277959537896e-13
	5.315553756328448e-05,8.657512567491454e-12
	-3.706863088860028e-05,-1.036684061385853e-13
	-1.518001702116455e-05,-8.346816365399078e-12
	9.068896535196483e-07,2.070277959537888e-13
	-5.315553756329860e-05,-8.657512567491452e-12
	9.068896535196483e-07,2.070277959537888e-13
37		2.344228815319919e+00,0.000000000000000e+00
	9.068896535196483e-03,2.118500928068419e-09
	1.000000000000000e+00,0.000000000000000e+00
	0.000000000000000e+00,0.000000000000000e+00
	6.950368292404025e-05,2.065330556571638e-13
	6.950368285493928e-05,1.977216983216631e-13
	-9.068896535196507e-07,-2.118500928068425e-13
	5.315553756328448e-05,8.859171940896565e-12
	-3.706863088860028e-05,-1.060831535225295e-13
	-1.518001702116455e-05,-8.541238694567192e-12
	9.068896535196483e-07,2.118500928068419e-13
	-5.315553756329860e-05,-8.859171940896565e-12
	9.068896535196483e-07,2.118500928068419e-13
38		2.398832919019488e+00,0.000000000000000e+00
	9.068896535196483e-03,2.167847153832687e-09
	1.000000000000000e+00,0.000000000000000e+00
	0.000000000000000e+00,0.000000000000000e+00
	6.950368292404025e-05,2.113438285283067e-13
	6.950368285493928e-05,2.023272283144072e-13
	-9.068896535196507e-07,-2.167847153832682e-13
	5.315553756328448e-05,9.065528564529742e-12
	-3.706863088860028e-05,-1.085541475986478e-13
	-1.518001702116455e-05,-8.740189701547826e-12
	9.068896535196483e-07,2.167847153832687e-13
	-5.315553756329860e-05,-9.065528564529739e-12
	9.068896535196483e-07,2.167847153832687e-13
39		2.454708915685027e+00,0.000000000000000e+00
	9.068896535196483e-03,2.218342800852767e-09
	1.000000000000000e+00,0.000000000000000e+00
	0.000000000000000e+00,0.000000000000000e+00
	6.950368292404025e-05,2.162666586948016e-13
	6.950368285493928e-05,2.070400348817210e-13
	-9.068896535196541e-07,-2.218342800852763e-13
	5.315553756328449e-05,9.276691851404287e-12
	-3.706863088860028e-05,-1.110826985207070e-13
	-1.518001702116456e-05,-8.943774872798304e-12
	9.068896535196483e-07,2.218342800852767e-13
	-5.315553756329860e-05,-9.276691851404289e-12
	9.068896535196483e-07,2.218342800852767e-13
40		2.511886431509577e+00,0.000000000000000e+00
	9.068896535196484e-03,2.270014642589097e-09
	1.000000000000000e+00,0.000000000000000e+00
	0.000000000000000e+00,0.000000000000000e+00
	6.950368292404025e-05,2.213041563063641e-13
	6.950368285493928e-05,2.118626168160280e-13
	-9.068896535196507e-07,-2.270014642589109e-13
	5.315553756328449e-05,9.492773763089984e-12
	-3.706863088860028e-05,-1.136701469598751e-13
	-1.518001702116456e-05,-9.152102151871198e-12
	9.068896535196485e-07,2.270014642589097e-13
	-5.315553756329860e-05,-9.492773763089981e-12
	9.068896535196485e-07,2.270014642589097e-13
41		2.570395782768860e+00,0.000000000000000e+00
	9.068896535196484e-03,2.322890076136123e-09
	1.000000000000000e+00,0.000000000000000e+00
	0.000000000000000e+00,0.000000000000000e+00
	6.950368292404025e-05,2.264589923109070e-13
	6.950368285493928e-05,2.167975311141041e-13
	-9.068896535196507e-07,-2.322890076136113e-13
	5.315553756328449e-05,9.713888869076579e-12
	-3.706863088860028e-05,-1.163178648155637e-13
	-1.518001702116456e-05,-9.365281996647404e-12
	9.068896535196485e-07,2.322890076136123e-13
	-5.315553756329860e-05,-9.713888869076579e-12
	9.068896535196485e-07,2.322890076136123e-13
42		2.630267991895378e+00,0.000000000000000e+00
	9.068896535196484e-03,2.376997136748602e-09
	1.000000000000000e+00,0.000000000000000e+00
	0.000000000000000e+00,0.000000000000000e+00
	6.950368292404025e-05,2.317338998707123e-13
	6.950368285493928e-05,2.218473943328315e-13
	-9.068896535196507e-07,-2.376997136748601e-13
	5.315553756328449e-05,9.940154407520087e-12
	-3.706863088860028e-05,-1.190272559428264e-13
	-1.518001702116456e-05,-9.583427437902400e-12
	9.068896535196485e-07,2.376997136748602e-13
	-5.315553756329860e-05,-9.940154407520083e-12
	9.068896535196485e-07,2.376997136748602e-13
43		2.691534803926912e+00,0.000000000000000e+00
	9.068896535196484e-03,2.432364512706263e-09
	1.000000000000000e+00,0.000000000000000e+00
	0.000000000000000e+00,0.000000000000000e+00
	6.950368292404025e-05,2.371316758115899e-13
	6.950368285493928e-05,2.270148839765316e-13
	-9.068896535196507e-07,-2.432364512706258e-13
	5.315553756328449e-05,1.017169034740396e-11
	-3.706863088860028e-05,-1.217997568967020e-13
	-1.518001702116456e-05,-9.806654139236629e-12
	9.068896535196485e-07,2.432364512706263e-13
	-5.315553756329860e-05,-1.017169034740396e-11
	9.068896535196485e-07,2.432364512706263e-13
44		2.754228703338163e+00,0.000000000000000e+00
	9.068896535196484e-03,2.489021560524709e-09
	1.000000000000000e+00,0.000000000000000e+00
	0.000000000000000e+00,0.000000000000000e+00
	6.950368292404025e-05,2.426551821057915e-13
	6.950368285493928e-05,2.323027399166132e-13
	-9.068896535196507e-07,-2.489021560524720e-13
	5.315553756328449e-05,1.040861945214826e-11
	-3.706863088860028e-05,-1.246368376938946e-13
	-1.518001702116456e-05,-1.003508045840189e-11
	9.068896535196485e-07,2.489021560524709e-13
	-5.315553756329860e-05,-1.040861945214825e-11
	9.068896535196485e-07,2.489021560524709e-13
45		2.818382931264450e+00,0.000000000000000e+00
	9.068896535196484e-03,2.546998320520642e-09
	1.000000000000000e+00,0.000000000000000e+00
	0.000000000000000e+00,0.000000000000000e+00
	6.950368292404025e-05,2.483073473894667e-13
	6.950368285493928e-05,2.377137658442889e-13
	-9.068896535196541e-07,-2.546998320520641e-13
	5.315553756328449e-05,1.065106734470045e-11
	-3.706863088860028e-05,-1.275400025921961e-13
	-1.518001702116456e-05,-1.026882751005620e-11
	9.068896535196485e-07,2.546998320520642e-13
	-5.315553756329860e-05,-1.065106734470045e-11
	9.068896535196485e-07,2.546998320520642e-13
46		2.884031503126602e+00,0.000000000000000e+00
	9.068896535196486e-03,2.606325532739622e-09
	1.000000000000000e+00,0.000000000000000e+00
	0.000000000000000e+00,0.000000000000000e+00
	6.950368292404025e-05,2.540911685154640e-13
	6.950368285493928e-05,2.432508307571289e-13
	-9.068896535196507e-07,-2.606325532739616e-13
	5.315553756328449e-05,1.089916257414235e-11
	-3.706863088860028e-05,-1.305107908880634e-13
	-1.518001702116456e-05,-1.050801922998033e-11
	9.068896535196487e-07,2.606325532739623e-13
	-5.315553756329860e-05,-1.089916257414235e-11
	9.068896535196487e-07,2.606325532739623e-13
47		2.951209226666381e+00,0.000000000000000e+00
	9.068896535196486e-03,2.667034653254859e-09
	1.000000000000000e+00,0.000000000000000e+00
	0.000000000000000e+00,0.000000000000000e+00
	6.950368292404024e-05,2.600097121423026e-13
	6.950368285493926e-05,2.489168704802418e-13
	-9.068896535196507e-07,-2.667034653254858e-13
	5.315553756328448e-05,1.115303668384853e-11
	-3.706863088860027e-05,-1.335507777327743e-13
	-1.518001702116456e-05,-1.075278244079027e-11
	9.068896535196487e-07,2.667034653254859e-13
	-5.315553756329860e-05,-1.115303668384853e-11
	9.068896535196487e-07,2.667034653254859e-13
48		3.019951720402012e+00,0.000000000000000e+00
	9.068896535196486e-03,2.729157870845628e-09
	1.000000000000000e+00,0.000000000000000e+00
	0.000000000000000e+00,0.000000000000000e+00
	6.950368292404024e-05,2.660661163601543e-13
	6.950368285493926e-05,2.547148892228875e-13
	-9.068896535196507e-07,-2.729157870845619e-13
	5.315553756328448e-05,1.141282428123238e-11
	-3.706863088860027e-05,-1.366615749675925e-13
	-1.518001702116456e-05,-1.100324691918023e-11
	9.068896535196487e-07,2.729157870845628e-13
	-5.315553756329860e-05,-1.141282428123239e-11
	9.068896535196487e-07,2.729157870845628e-13
49		3.090295432513586e+00,0.000000000000000e+00
	9.068896535196486e-03,2.792728124064194e-09
	1.000000000000000e+00,0.000000000000000e+00
	0.000000000000000e+00,0.000000000000000e+00