Title: * GA CMOS Amp | W=4.757684898406271e-05 L=7.465528278448773e-07 Vbias=0.8738091516960116
Date: Sat Sep  6 22:03:17 2025
Plotname: AC Analysis
Flags: complex forward log
No. Variables: 13
No. Points:          901
Offset:    0.0000000000000000e+00
Command: Linear Technology Corporation LTspice
Variables:
	0	frequency	frequency
	1	V(out)	voltage
	2	V(g)	voltage
	3	V(vdd)	voltage
	4	V(m1#dbody)	voltage
	5	V(m1#sbody)	voltage
	6	Id(M1)	device_current
	7	Ig(M1)	device_current
	8	Ib(M1)	device_current
	9	Is(M1)	device_current
	10	I(Rload)	device_current
	11	I(Vg)	device_current
	12	I(Vdd)	device_current
Values:
0		1.000000000000000e+00,0.000000000000000e+00
	-7.042984402103766e-03,7.585331523233792e-10
	1.000000000000000e+00,0.000000000000000e+00
	0.000000000000000e+00,0.000000000000000e+00
	1.749898603017571e-06,7.324694896249768e-14
	1.749898662456701e-06,8.106645497907343e-14
	7.042984402103755e-07,-7.585331523233975e-14
	9.284738555060313e-06,9.141854556933819e-12
	-9.332792833872367e-07,-4.271539773713887e-14
	-9.055757711883451e-06,-9.023285843964341e-12
	-7.042984402103767e-07,7.585331523233792e-14
	-9.284738555048744e-06,-9.141854556933819e-12
	-7.042984402103767e-07,7.585331523233792e-14
1		1.023292992280754e+00,0.000000000000000e+00
	-7.042984402103766e-03,7.762016591851439e-10
	1.000000000000000e+00,0.000000000000000e+00
	0.000000000000000e+00,0.000000000000000e+00
	1.749898603017571e-06,7.495308957926996e-14
	1.749898662456701e-06,8.295473528912911e-14
	7.042984402103755e-07,-7.762016591851565e-14
	9.284738555060313e-06,9.354795704560256e-12
	-9.332792833872366e-07,-4.371036716689940e-14
	-9.055757711883451e-06,-9.233465171474842e-12
	-7.042984402103767e-07,7.762016591851439e-14
	-9.284738555048744e-06,-9.354795704560256e-12
	-7.042984402103767e-07,7.762016591851439e-14
2		1.047128548050899e+00,0.000000000000000e+00
	-7.042984402103766e-03,7.942817184408519e-10
	1.000000000000000e+00,0.000000000000000e+00
	0.000000000000000e+00,0.000000000000000e+00
	1.749898603017571e-06,7.669897131625857e-14
	1.749898662456701e-06,8.488699929787081e-14
	7.042984402103755e-07,-7.942817184408620e-14
	9.284738555060313e-06,9.572696888694609e-12
	-9.332792833872365e-07,-4.472851241190692e-14
	-9.055757711883451e-06,-9.448540204438617e-12
	-7.042984402103767e-07,7.942817184408520e-14
	-9.284738555048744e-06,-9.572696888694608e-12
	-7.042984402103767e-07,7.942817184408520e-14
3		1.071519305237606e+00,0.000000000000000e+00
	-7.042984402103766e-03,8.127829163772387e-10
	1.000000000000000e+00,0.000000000000000e+00
	0.000000000000000e+00,0.000000000000000e+00
	1.749898603017570e-06,7.848551986306994e-14
	1.749898662456700e-06,8.686427151725248e-14
	7.042984402103755e-07,-8.127829163772348e-14
	9.284738555060313e-06,9.795673643428969e-12
	-9.332792833872361e-07,-4.577037330624708e-14
	-9.055757711883451e-06,-9.668624978484998e-12
	-7.042984402103767e-07,8.127829163772387e-14
	-9.284738555048744e-06,-9.795673643428969e-12
	-7.042984402103767e-07,8.127829163772387e-14
4		1.096478196143185e+00,0.000000000000000e+00
	-7.042984402103766e-03,8.317150625743423e-10
	1.000000000000000e+00,0.000000000000000e+00
	0.000000000000000e+00,0.000000000000000e+00
	1.749898603017570e-06,8.031368247139138e-14
	1.749898662456700e-06,8.888760032317711e-14
	7.042984402103755e-07,-8.317150625743473e-14
	9.284738555060313e-06,1.002384419399015e-11
	-9.332792833872361e-07,-4.683650225835670e-14
	-9.055757711883451e-06,-9.893836185474355e-12
	-7.042984402103767e-07,8.317150625743424e-14
	-9.284738555048744e-06,-1.002384419399015e-11
	-7.042984402103767e-07,8.317150625743424e-14
5		1.122018454301963e+00,0.000000000000000e+00
	-7.042984402103766e-03,8.510881951066736e-10
	1.000000000000000e+00,0.000000000000000e+00
	0.000000000000000e+00,0.000000000000000e+00
	1.749898603017569e-06,8.218442845723643e-14
	1.749898662456700e-06,9.095805851135965e-14
	7.042984402103755e-07,-8.510881951066826e-14
	9.284738555060313e-06,1.025732951942424e-11
	-9.332792833872360e-07,-4.792746454391812e-14
	-9.055757711883451e-06,-1.012429323536966e-11
	-7.042984402103767e-07,8.510881951066736e-14
	-9.284738555048744e-06,-1.025732951942424e-11
	-7.042984402103767e-07,8.510881951066736e-14
6		1.148153621496882e+00,0.000000000000000e+00
	-7.042984402103766e-03,8.709125858655342e-10
	1.000000000000000e+00,0.000000000000000e+00
	0.000000000000000e+00,0.000000000000000e+00
	1.749898603017569e-06,8.409874971488902e-14
	1.749898662456699e-06,9.307674386613713e-14
	7.042984402103755e-07,-8.709125858655572e-14
	9.284738555060311e-06,1.049625341674134e-11
	-9.332792833872358e-07,-4.904383860557573e-14
	-9.055757711883451e-06,-1.036011831954921e-11
	-7.042984402103767e-07,8.709125858655342e-14
	-9.284738555048744e-06,-1.049625341674134e-11
	-7.042984402103767e-07,8.709125858655342e-14
7		1.174897554939529e+00,0.000000000000000e+00
	-7.042984402103766e-03,8.911987460053117e-10
	1.000000000000000e+00,0.000000000000000e+00
	0.000000000000000e+00,0.000000000000000e+00
	1.749898603017569e-06,8.605766124281902e-14
	1.749898662456699e-06,9.524477974252879e-14
	7.042984402103755e-07,-8.911987460053140e-14
	9.284738555060311e-06,1.074074256655434e-11
	-9.332792833872357e-07,-5.018621635963396e-14
	-9.055757711883451e-06,-1.060143647559417e-11
	-7.042984402103767e-07,8.911987460053117e-14
	-9.284738555048744e-06,-1.074074256655434e-11
	-7.042984402103767e-07,8.911987460053117e-14
8		1.202264434617413e+00,0.000000000000000e+00
	-7.042984402103766e-03,9.119574315166314e-10
	1.000000000000000e+00,0.000000000000000e+00
	0.000000000000000e+00,0.000000000000000e+00
	1.749898603017568e-06,8.806220168184777e-14
	1.749898662456699e-06,9.746331566185367e-14
	7.042984402103755e-07,-9.119574315166288e-14
	9.284738555060311e-06,1.099092660024665e-11
	-9.332792833872353e-07,-5.135520350989917e-14
	-9.055757711883451e-06,-1.084837565358509e-11
	-7.042984402103767e-07,9.119574315166314e-14
	-9.284738555048744e-06,-1.099092660024666e-11
	-7.042984402103767e-07,9.119574315166314e-14
9		1.230268770812381e+00,0.000000000000000e+00
	-7.042984402103766e-03,9.331996489293244e-10
	1.000000000000000e+00,0.000000000000000e+00
	0.000000000000000e+00,0.000000000000000e+00
	1.749898603017568e-06,9.011343386584925e-14
	1.749898662456699e-06,9.973352792122191e-14
	7.042984402103755e-07,-9.331996489293398e-14
	9.284738555060311e-06,1.124693816870454e-11
	-9.332792833872352e-07,-5.255141986883180e-14
	-9.055757711883451e-06,-1.110106678394277e-11
	-7.042984402103767e-07,9.331996489293245e-14
	-9.284738555048744e-06,-1.124693816870454e-11
	-7.042984402103767e-07,9.331996489293245e-14
10		1.258925411794167e+00,0.000000000000000e+00
	-7.042984402103766e-03,9.549366611482376e-10
	1.000000000000000e+00,0.000000000000000e+00
	0.000000000000000e+00,0.000000000000000e+00
	1.749898603017568e-06,9.221244538527875e-14
	1.749898662456698e-06,1.020566202172233e-13
	7.042984402103755e-07,-9.549366611482545e-14
	9.284738555060311e-06,1.150891301265029e-11
	-9.332792833872350e-07,-5.377549968617919e-14
	-9.055757711883451e-06,-1.135964384684928e-11
	-7.042984402103767e-07,9.549366611482375e-14
	-9.284738555048744e-06,-1.150891301265029e-11
	-7.042984402103767e-07,9.549366611482375e-14
11		1.288249551693134e+00,0.000000000000000e+00
	-7.042984402103766e-03,9.771799934249728e-10
	1.000000000000000e+00,0.000000000000000e+00
	0.000000000000000e+00,0.000000000000000e+00
	1.749898603017567e-06,9.436034916382750e-14
	1.749898662456698e-06,1.044338242841430e-13
	7.042984402103755e-07,-9.771799934249740e-14
	9.284738555060311e-06,1.177699003461382e-11
	-9.332792833872348e-07,-5.502809198526306e-14
	-9.055757711883451e-06,-1.162424394328606e-11
	-7.042984402103767e-07,9.771799934249729e-14
	-9.284738555048744e-06,-1.177699003461383e-11
	-7.042984402103767e-07,9.771799934249729e-14
12		1.318256738556407e+00,0.000000000000000e+00
	-7.042984402103766e-03,9.999414394687279e-10
	1.000000000000000e+00,0.000000000000000e+00
	0.000000000000000e+00,0.000000000000000e+00
	1.749898603017567e-06,9.655828404850983e-14
	1.749898662456697e-06,1.068664005470432e-13
	7.042984402103755e-07,-9.999414394687467e-14
	9.284738555060311e-06,1.205131137258060e-11
	-9.332792833872347e-07,-5.630986090710043e-14
	-9.055757711883451e-06,-1.189500736772663e-11
	-7.042984402103767e-07,9.999414394687279e-14
	-9.284738555048744e-06,-1.205131137258060e-11
	-7.042984402103767e-07,9.999414394687279e-14
13		1.348962882591653e+00,0.000000000000000e+00
	-7.042984402103766e-03,1.023233067699479e-09
	1.000000000000000e+00,0.000000000000000e+00
	0.000000000000000e+00,0.000000000000000e+00
	1.749898603017566e-06,9.880741541349460e-14
	1.749898662456697e-06,1.093556387900574e-13
	7.042984402103755e-07,-1.023233067699493e-13
	9.284738555060311e-06,1.233202247535508e-11
	-9.332792833872344e-07,-5.762148606253984e-14
	-9.055757711883451e-06,-1.217207768252260e-11
	-7.042984402103767e-07,1.023233067699479e-13
	-9.284738555048744e-06,-1.233202247535509e-11
	-7.042984402103767e-07,1.023233067699479e-13
14		1.380384264602885e+00,0.000000000000000e+00
	-7.042984402103766e-03,1.047067227646816e-09
	1.000000000000000e+00,0.000000000000000e+00
	0.000000000000000e+00,0.000000000000000e+00
	1.749898603017566e-06,1.011089357780024e-13
	1.749898662456697e-06,1.119028588402512e-13
	7.042984402103755e-07,-1.047067227646829e-13
	9.284738555060318e-06,1.261927217967962e-11
	-9.332792833872343e-07,-5.896366289260018e-14
	-9.055757711883458e-06,-1.245560179402234e-11
	-7.042984402103767e-07,1.047067227646816e-13
	-9.284738555048744e-06,-1.261927217967962e-11
	-7.042984402103767e-07,1.047067227646816e-13
15		1.412537544622754e+00,0.000000000000000e+00
	-7.042984402103766e-03,1.071456556497824e-09
	1.000000000000000e+00,0.000000000000000e+00
	0.000000000000000e+00,0.000000000000000e+00
	1.749898603017565e-06,1.034640654385947e-13
	1.749898662456696e-06,1.145094112674114e-13
	7.042984402103755e-07,-1.071456556497820e-13
	9.284738555060323e-06,1.291321278914963e-11
	-9.332792833872340e-07,-6.033710303720250e-14
	-9.055757711883465e-06,-1.274573003046265e-11
	-7.042984402103765e-07,1.071456556497824e-13
	-9.284738555048744e-06,-1.291321278914963e-11
	-7.042984402103765e-07,1.071456556497824e-13
16		1.445439770745927e+00,0.000000000000000e+00
	-7.042984402103766e-03,1.096413985797491e-09
	1.000000000000000e+00,0.000000000000000e+00
	0.000000000000000e+00,0.000000000000000e+00
	1.749898603017565e-06,1.058740531161913e-13
	1.749898662456696e-06,1.171766781001369e-13
	7.042984402103755e-07,-1.096413985797502e-13
	9.284738555060323e-06,1.321400015496703e-11
	-9.332792833872337e-07,-6.174253471249110e-14
	-9.055757711883465e-06,-1.304261622167479e-11
	-7.042984402103765e-07,1.096413985797491e-13
	-9.284738555048744e-06,-1.321400015496703e-11
	-7.042984402103765e-07,1.096413985797491e-13
17		1.479108388168207e+00,0.000000000000000e+00
	-7.042984402103766e-03,1.121952748305182e-09
	1.000000000000000e+00,0.000000000000000e+00
	0.000000000000000e+00,0.000000000000000e+00
	1.749898603017564e-06,1.083401766181589e-13
	1.749898662456695e-06,1.199060735586078e-13
	7.042984402103755e-07,-1.121952748305184e-13
	9.284738555060323e-06,1.352179375857456e-11
	-9.332792833872334e-07,-6.318070309694335e-14
	-9.055757711883465e-06,-1.334641778064710e-11
	-7.042984402103765e-07,1.121952748305182e-13
	-9.284738555048744e-06,-1.352179375857456e-11
	-7.042984402103765e-07,1.121952748305182e-13
18		1.513561248436208e+00,0.000000000000000e+00
	-7.042984402103766e-03,1.148086385010826e-09
	1.000000000000000e+00,0.000000000000000e+00
	0.000000000000000e+00,0.000000000000000e+00
	1.749898603017564e-06,1.108637435158212e-13
	1.749898662456695e-06,1.226990448044240e-13
	7.042984402103755e-07,-1.148086385010840e-13
	9.284738555060323e-06,1.383675679621499e-11
	-9.332792833872332e-07,-6.465237072647306e-14
	-9.055757711883465e-06,-1.365729578698743e-11
	-7.042984402103765e-07,1.148086385010826e-13
	-9.284738555048744e-06,-1.383675679621499e-11
	-7.042984402103765e-07,1.148086385010826e-13
19		1.548816618912481e+00,0.000000000000000e+00
	-7.042984402103766e-03,1.174828752314522e-09
	1.000000000000000e+00,0.000000000000000e+00
	0.000000000000000e+00,0.000000000000000e+00
	1.749898603017563e-06,1.134460918377507e-13
	1.749898662456694e-06,1.255570727079094e-13
	7.042984402103755e-07,-1.174828752314527e-13
	9.284738555060323e-06,1.415905626545989e-11
	-9.332792833872328e-07,-6.615831789873726e-14
	-9.055757711883465e-06,-1.397541507232970e-11
	-7.042984402103765e-07,1.174828752314522e-13
	-9.284738555048744e-06,-1.415905626545989e-11
	-7.042984402103765e-07,1.174828752314522e-13
20		1.584893192461113e+00,0.000000000000000e+00
	-7.042984402103766e-03,1.202194029373392e-09
	1.000000000000000e+00,0.000000000000000e+00
	0.000000000000000e+00,0.000000000000000e+00
	1.749898603017562e-06,1.160885907792092e-13
	1.749898662456694e-06,1.284816726332888e-13
	7.042984402103755e-07,-1.202194029373403e-13
	9.284738555060323e-06,1.448886305375401e-11
	-9.332792833872327e-07,-6.769934308686025e-14
	-9.055757711883465e-06,-1.430094430772981e-11
	-7.042984402103765e-07,1.202194029373392e-13
	-9.284738555048744e-06,-1.448886305375401e-11
	-7.042984402103765e-07,1.202194029373392e-13
21		1.621810097358929e+00,0.000000000000000e+00
	-7.042984402103766e-03,1.230196725619555e-09
	1.000000000000000e+00,0.000000000000000e+00
	0.000000000000000e+00,0.000000000000000e+00
	1.749898603017562e-06,1.187926414281129e-13
	1.749898662456693e-06,1.314743952421544e-13
	7.042984402103687e-07,-1.230196725619589e-13
	9.284738555060328e-06,1.482635202902201e-11
	-9.332792833872323e-07,-6.927626336279459e-14
	-9.055757711883465e-06,-1.463405609309726e-11
	-7.042984402103765e-07,1.230196725619555e-13
	-9.284738555048744e-06,-1.482635202902201e-11
	-7.042984402103765e-07,1.230196725619555e-13
22		1.659586907437560e+00,0.000000000000000e+00
	-7.042984402103766e-03,1.258851688453220e-09
	1.000000000000000e+00,0.000000000000000e+00
	0.000000000000000e+00,0.000000000000000e+00
	1.749898603017561e-06,1.215596775079084e-13
	1.749898662456692e-06,1.345368273156467e-13
	7.042984402103687e-07,-1.258851688453247e-13
	9.284738555060328e-06,1.517170213238576e-11
	-9.332792833872320e-07,-7.088991483054366e-14
	-9.055757711883465e-06,-1.497492704870989e-11
	-7.042984402103765e-07,1.258851688453220e-13
	-9.284738555048744e-06,-1.517170213238576e-11
	-7.042984402103765e-07,1.258851688453220e-13
23		1.698243652461743e+00,0.000000000000000e+00
	-7.042984402103766e-03,1.288174111114976e-09
	1.000000000000000e+00,0.000000000000000e+00
	0.000000000000000e+00,0.000000000000000e+00
	1.749898603017560e-06,1.243911661377511e-13
	1.749898662456692e-06,1.376705925957872e-13
	7.042984402103687e-07,-1.288174111114973e-13
	9.284738555060328e-06,1.552509647304132e-11
	-9.332792833872315e-07,-7.254115306947485e-14
	-9.055757711883465e-06,-1.532373790886035e-11
	-7.042984402103765e-07,1.288174111114976e-13
	-9.284738555048744e-06,-1.552509647304132e-11
	-7.042984402103765e-07,1.288174111114976e-13
24		1.737800828749374e+00,0.000000000000000e+00
	-7.042984402103766e-03,1.318179540741444e-09
	1.000000000000000e+00,0.000000000000000e+00
	0.000000000000000e+00,0.000000000000000e+00
	1.749898603017559e-06,1.272886086103917e-13
	1.749898662456691e-06,1.408773526464077e-13
	7.042984402103687e-07,-1.318179540741470e-13
	9.284738555060328e-06,1.588672242534584e-11
	-9.332792833872313e-07,-7.423085358795911e-14
	-9.055757711883465e-06,-1.568067361768373e-11
	-7.042984402103765e-07,1.318179540741444e-13
	-9.284738555048744e-06,-1.588672242534584e-11
	-7.042984402103765e-07,1.318179540741444e-13
25		1.778279410038922e+00,0.000000000000000e+00
	-7.042984402103766e-03,1.348883886608583e-09
	1.000000000000000e+00,0.000000000000000e+00
	0.000000000000000e+00,0.000000000000000e+00
	1.749898603017558e-06,1.302535411881814e-13
	1.749898662456691e-06,1.441588077341335e-13
	7.042984402103687e-07,-1.348883886608578e-13
	9.284738555060328e-06,1.625677172816590e-11
	-9.332792833872309e-07,-7.595991228757723e-14
	-9.055757711883465e-06,-1.604592342721746e-11
	-7.042984402103765e-07,1.348883886608583e-13
	-9.284738555048744e-06,-1.625677172816590e-11
	-7.042984402103765e-07,1.348883886608583e-13
26		1.819700858609982e+00,0.000000000000000e+00
	-7.042984402103765e-03,1.380303428566990e-09
	1.000000000000000e+00,0.000000000000000e+00
	0.000000000000000e+00,0.000000000000000e+00
	1.749898603017558e-06,1.332875359176186e-13
	1.749898662456690e-06,1.475166977298874e-13
	7.042984402103755e-07,-1.380303428566986e-13
	9.284738555060326e-06,1.663544058654005e-11
	-9.332792833872305e-07,-7.772924593813851e-14
	-9.055757711883472e-06,-1.641968099774521e-11
	-7.042984402103765e-07,1.380303428566990e-13
	-9.284738555048744e-06,-1.663544058654005e-11
	-7.042984402103765e-07,1.380303428566990e-13
27		1.862087136662866e+00,0.000000000000000e+00
	-7.042984402103765e-03,1.412454825673698e-09
	1.000000000000000e+00,0.000000000000000e+00
	0.000000000000000e+00,0.000000000000000e+00
	1.749898603017557e-06,1.363922014628684e-13
	1.749898662456689e-06,1.509528030313920e-13
	7.042984402103755e-07,-1.412454825673728e-13
	9.284738555060326e-06,1.702292977570927e-11
	-9.332792833872299e-07,-7.953979266376440e-14
	-9.055757711883472e-06,-1.680214450047813e-11
	-7.042984402103765e-07,1.412454825673698e-13
	-9.284738555048744e-06,-1.702292977570927e-11
	-7.042984402103765e-07,1.412454825673698e-13
28		1.905460717963246e+00,0.000000000000000e+00
	-7.042984402103765e-03,1.445355125025030e-09
	1.000000000000000e+00,0.000000000000000e+00
	0.000000000000000e+00,0.000000000000000e+00
	1.749898603017556e-06,1.395691839586981e-13
	1.749898662456688e-06,1.544689455071604e-13
	7.042984402103755e-07,-1.445355125025037e-13
	9.284738555060326e-06,1.741944474757069e-11
	-9.332792833872297e-07,-8.139251244029428e-14
	-9.055757711883472e-06,-1.719351672262789e-11
	-7.042984402103765e-07,1.445355125025030e-13
	-9.284738555048744e-06,-1.741944474757068e-11
	-7.042984402103765e-07,1.445355125025030e-13
29		1.949844599758044e+00,0.000000000000000e+00
	-7.042984402103765e-03,1.479021770795187e-09
	1.000000000000000e+00,0.000000000000000e+00
	0.000000000000000e+00,0.000000000000000e+00
	1.749898603017555e-06,1.428201678832792e-13
	1.749898662456687e-06,1.580669894624750e-13
	7.042984402103755e-07,-1.479021770795198e-13
	9.284738555060326e-06,1.782519573961088e-11
	-9.332792833872292e-07,-8.328838760427722e-14
	-9.055757711883472e-06,-1.759400517492708e-11
	-7.042984402103765e-07,1.479021770795187e-13
	-9.284738555048744e-06,-1.782519573961088e-11
	-7.042984402103765e-07,1.479021770795187e-13
30		1.995262314968878e+00,0.000000000000000e+00
	-7.042984402103765e-03,1.513472613485386e-09
	1.000000000000000e+00,0.000000000000000e+00
	0.000000000000000e+00,0.000000000000000e+00
	1.749898603017554e-06,1.461468769513205e-13
	1.749898662456686e-06,1.617488426278665e-13
	7.042984402103755e-07,-1.513472613485397e-13
	9.284738555060324e-06,1.824039788637656e-11
	-9.332792833872287e-07,-8.522842337382012e-14
	-9.055757711883472e-06,-1.800382220165420e-11
	-7.042984402103765e-07,1.513472613485386e-13
	-9.284738555048744e-06,-1.824039788637656e-11
	-7.042984402103765e-07,1.513472613485386e-13
31		2.041737944669527e+00,0.000000000000000e+00
	-7.042984402103765e-03,1.548725919388434e-09
	1.000000000000000e+00,0.000000000000000e+00
	0.000000000000000e+00,0.000000000000000e+00
	1.749898603017553e-06,1.495510750280039e-13
	1.749898662456685e-06,1.655164571706183e-13
	7.042984402103755e-07,-1.548725919388446e-13
	9.284738555060324e-06,1.866527133354181e-11
	-9.332792833872280e-07,-8.721364838156738e-14
	-9.055757711883472e-06,-1.842318509322140e-11
	-7.042984402103765e-07,1.548725919388434e-13
	-9.284738555048744e-06,-1.866527133354180e-11
	-7.042984402103765e-07,1.548725919388434e-13
32		2.089296130854037e+00,0.000000000000000e+00
	-7.042984402103765e-03,1.584800380273753e-09
	1.000000000000000e+00,0.000000000000000e+00
	0.000000000000000e+00,0.000000000000000e+00
	1.749898603017552e-06,1.530345670642096e-13
	1.749898662456685e-06,1.693718307298312e-13
	7.042984402103687e-07,-1.584800380273757e-13
	9.284738555060331e-06,1.910004135463218e-11
	-9.332792833872276e-07,-8.924511522009558e-14
	-9.055757711883472e-06,-1.885231620138471e-11
	-7.042984402103765e-07,1.584800380273753e-13
	-9.284738555048744e-06,-1.910004135463218e-11
	-7.042984402103765e-07,1.584800380273753e-13
33		2.137962089502230e+00,0.000000000000000e+00
	-7.042984402103765e-03,1.621715123298005e-09
	1.000000000000000e+00,0.000000000000000e+00
	0.000000000000000e+00,0.000000000000000e+00
	1.749898603017550e-06,1.565992000535248e-13
	1.749898662456684e-06,1.733170074755983e-13
	7.042984402103687e-07,-1.621715123298031e-13
	9.284738555060330e-06,1.954493847046771e-11
	-9.332792833872271e-07,-9.132390100001226e-14
	-9.055757711883472e-06,-1.929144305713789e-11
	-7.042984402103765e-07,1.621715123298005e-13
	-9.284738555048744e-06,-1.954493847046771e-11
	-7.042984402103765e-07,1.621715123298005e-13
34		2.187761623949550e+00,0.000000000000000e+00
	-7.042984402103764e-03,1.659489721146567e-09
	1.000000000000000e+00,0.000000000000000e+00
	0.000000000000000e+00,0.000000000000000e+00
	1.749898603017549e-06,1.602468640115439e-13
	1.749898662456682e-06,1.773540791928509e-13
	7.042984402103755e-07,-1.659489721146595e-13
	9.284738555060323e-06,2.000019857138813e-11
	-9.332792833872265e-07,-9.345110792105395e-14
	-9.055757711883472e-06,-1.974079849135241e-11
	-7.042984402103764e-07,1.659489721146568e-13
	-9.284738555048744e-06,-2.000019857138813e-11
	-7.042984402103764e-07,1.659489721146568e-13
35		2.238721138568337e+00,0.000000000000000e+00
	-7.042984402103764e-03,1.698144202411225e-09
	1.000000000000000e+00,0.000000000000000e+00
	0.000000000000000e+00,0.000000000000000e+00
	1.749898603017548e-06,1.639794929779798e-13
	1.749898662456681e-06,1.814851863904502e-13
	7.042984402103755e-07,-1.698144202411231e-13
	9.284738555060323e-06,2.046606304232502e-11
	-9.332792833872259e-07,-9.562786385648694e-14
	-9.055757711883472e-06,-2.020062075822741e-11
	-7.042984402103764e-07,1.698144202411226e-13
	-9.284738555048744e-06,-2.046606304232502e-11
	-7.042984402103764e-07,1.698144202411226e-13
36		2.290867652767770e+00,0.000000000000000e+00
	-7.042984402103764e-03,1.737699062209598e-09
	1.000000000000000e+00,0.000000000000000e+00
	0.000000000000000e+00,0.000000000000000e+00
	1.749898603017546e-06,1.677990660421179e-13
	1.749898662456680e-06,1.857125194361142e-13
	7.042984402103755e-07,-1.737699062209632e-13
	9.284738555060321e-06,2.094277889078733e-11
	-9.332792833872253e-07,-9.785532295112113e-14
	-9.055757711883472e-06,-2.067115366161524e-11
	-7.042984402103764e-07,1.737699062209598e-13
	-9.284738555048744e-06,-2.094277889078733e-11
	-7.042984402103764e-07,1.737699062209598e-13
37		2.344228815319919e+00,0.000000000000000e+00
	-7.042984402103764e-03,1.778175273051919e-09
	1.000000000000000e+00,0.000000000000000e+00
	0.000000000000000e+00,0.000000000000000e+00
	1.749898603017545e-06,1.717076083921546e-13
	1.749898662456679e-06,1.900383197177789e-13
	7.042984402103755e-07,-1.778175273051948e-13
	9.284738555060321e-06,2.143059887782798e-11
	-9.332792833872247e-07,-1.001346662332523e-13
	-9.055757711883472e-06,-2.115264668428953e-11
	-7.042984402103764e-07,1.778175273051919e-13
	-9.284738555048744e-06,-2.143059887782797e-11
	-7.042984402103764e-07,1.778175273051919e-13
38		2.398832919019488e+00,0.000000000000000e+00
	-7.042984402103764e-03,1.819594295960946e-09
	1.000000000000000e+00,0.000000000000000e+00
	0.000000000000000e+00,0.000000000000000e+00
	1.749898603017543e-06,1.757071923889799e-13
	1.749898662456678e-06,1.944648808320127e-13
	7.042984402103755e-07,-1.819594295960956e-13
	9.284738555060326e-06,2.192978165206116e-11
	-9.332792833872239e-07,-1.024671022408593e-13
	-9.055757711883478e-06,-2.164535512022421e-11
	-7.042984402103764e-07,1.819594295960946e-13
	-9.284738555048744e-06,-2.192978165206116e-11
	-7.042984402103764e-07,1.819594295960946e-13
39		2.454708915685027e+00,0.000000000000000e+00
	-7.042984402103763e-03,1.861978091850868e-09
	1.000000000000000e+00,0.000000000000000e+00
	0.000000000000000e+00,0.000000000000000e+00
	1.749898603017542e-06,1.797999386649694e-13
	1.749898662456676e-06,1.989945498001106e-13
	7.042984402103755e-07,-1.861978091850883e-13
	9.284738555060333e-06,2.244059188680125e-11
	-9.332792833872232e-07,-1.048538676623869e-13
	-9.055757711883485e-06,-2.214954020995377e-11
	-7.042984402103763e-07,1.861978091850868e-13
	-9.284738555048744e-06,-2.244059188680125e-11
	-7.042984402103763e-07,1.861978091850868e-13
40		2.511886431509577e+00,0.000000000000000e+00
	-7.042984402103763e-03,1.905349133171283e-09
	1.000000000000000e+00,0.000000000000000e+00
	0.000000000000000e+00,0.000000000000000e+00
	1.749898603017540e-06,1.839880172483725e-13
	1.749898662456675e-06,2.036297283125166e-13
	7.042984402103755e-07,-1.905349133171296e-13
	9.284738555060331e-06,2.296330042039606e-11
	-9.332792833872223e-07,-1.072962279924541e-13
	-9.055757711883485e-06,-2.266546927908647e-11
	-7.042984402103763e-07,1.905349133171284e-13
	-9.284738555048744e-06,-2.296330042039605e-11
	-7.042984402103763e-07,1.905349133171284e-13
41		2.570395782768860e+00,0.000000000000000e+00
	-7.042984402103763e-03,1.949730415822383e-09
	1.000000000000000e+00,0.000000000000000e+00
	0.000000000000000e+00,0.000000000000000e+00
	1.749898603017539e-06,1.882736487138901e-13
	1.749898662456674e-06,2.083728740022321e-13
	7.042984402103755e-07,-1.949730415822414e-13
	9.284738555060331e-06,2.349818439982898e-11
	-9.332792833872217e-07,-1.097954782028363e-13
	-9.055757711883485e-06,-2.319341588004390e-11
	-7.042984402103763e-07,1.949730415822383e-13
	-9.284738555048744e-06,-2.349818439982898e-11
	-7.042984402103763e-07,1.949730415822383e-13
42		2.630267991895378e+00,0.000000000000000e+00
	-7.042984402103763e-03,1.995145471347686e-09
	1.000000000000000e+00,0.000000000000000e+00
	0.000000000000000e+00,0.000000000000000e+00
	1.749898603017537e-06,1.926591053600521e-13
	1.749898662456672e-06,2.132265017478847e-13
	7.042984402103755e-07,-1.995145471347700e-13
	9.284738555060331e-06,2.404552742766593e-11
	-9.332792833872206e-07,-1.123529434290767e-13
	-9.055757711883485e-06,-2.373365993710208e-11
	-7.042984402103763e-07,1.995145471347686e-13
	-9.284738555048744e-06,-2.404552742766593e-11
	-7.042984402103763e-07,1.995145471347686e-13
43		2.691534803926912e+00,0.000000000000000e+00
	-7.042984402103762e-03,2.041618379410770e-09
	1.000000000000000e+00,0.000000000000000e+00
	0.000000000000000e+00,0.000000000000000e+00
	1.749898603017535e-06,1.971467124140208e-13
	1.749898662456670e-06,2.181931850071503e-13
	7.042984402103755e-07,-2.041618379410768e-13
	9.284738555060336e-06,2.460561971242522e-11
	-9.332792833872199e-07,-1.149699796730902e-13
	-9.055757711883492e-06,-2.428648789481105e-11
	-7.042984402103762e-07,2.041618379410770e-13
	-9.284738555048744e-06,-2.460561971242522e-11
	-7.042984402103762e-07,2.041618379410770e-13
44		2.754228703338163e+00,0.000000000000000e+00
	-7.042984402103762e-03,2.089173780562630e-09
	1.000000000000000e+00,0.000000000000000e+00
	0.000000000000000e+00,0.000000000000000e+00
	1.749898603017533e-06,2.017388492644567e-13
	1.749898662456669e-06,2.232755571812351e-13
	7.042984402103755e-07,-2.089173780562639e-13
	9.284738555060335e-06,2.517875822244991e-11
	-9.332792833872189e-07,-1.176479745221339e-13
	-9.055757711883492e-06,-2.485219286987151e-11
	-7.042984402103762e-07,2.089173780562630e-13
	-9.284738555048744e-06,-2.517875822244991e-11
	-7.042984402103762e-07,2.089173780562630e-13
45		2.818382931264450e+00,0.000000000000000e+00
	-7.042984402103762e-03,2.137836889306429e-09
	1.000000000000000e+00,0.000000000000000e+00
	0.000000000000000e+00,0.000000000000000e+00
	1.749898603017531e-06,2.064379507231019e-13
	1.749898662456667e-06,2.284763130111387e-13
	7.042984402103687e-07,-2.137836889306448e-13
	9.284738555060341e-06,2.576524684336441e-11
	-9.332792833872180e-07,-1.203883478845244e-13
	-9.055757711883492e-06,-2.543107480654924e-11
	-7.042984402103762e-07,2.137836889306429e-13
	-9.284738555048744e-06,-2.576524684336441e-11
	-7.042984402103762e-07,2.137836889306429e-13
46		2.884031503126602e+00,0.000000000000000e+00
	-7.042984402103762e-03,2.187633507466555e-09
	1.000000000000000e+00,0.000000000000000e+00
	0.000000000000000e+00,0.000000000000000e+00
	1.749898603017529e-06,2.112465083157498e-13
	1.749898662456665e-06,2.337982100064422e-13
	7.042984402103687e-07,-2.187633507466538e-13
	9.284738555060340e-06,2.636539653919861e-11
	-9.332792833872170e-07,-1.231925527424913e-13
	-9.055757711883492e-06,-2.602344063570947e-11
	-7.042984402103762e-07,2.187633507466555e-13
	-9.284738555048744e-06,-2.636539653919861e-11
	-7.042984402103762e-07,2.187633507466555e-13
47		2.951209226666381e+00,0.000000000000000e+00
	-7.042984402103761e-03,2.238590037869092e-09
	1.000000000000000e+00,0.000000000000000e+00
	0.000000000000000e+00,0.000000000000000e+00
	1.749898603017526e-06,2.161670716032848e-13
	1.749898662456663e-06,2.392440699073764e-13
	7.042984402103755e-07,-2.238590037869137e-13
	9.284738555060340e-06,2.697952551726519e-11
	-9.332792833872160e-07,-1.260620759225686e-13
	-9.055757711883499e-06,-2.662960443755571e-11
	-7.042984402103761e-07,2.238590037869092e-13
	-9.284738555048744e-06,-2.697952551726519e-11
	-7.042984402103761e-07,2.238590037869092e-13
48		3.019951720402012e+00,0.000000000000000e+00
	-7.042984402103761e-03,2.290733498340951e-09
	1.000000000000000e+00,0.000000000000000e+00
	0.000000000000000e+00,0.000000000000000e+00
	1.749898603017524e-06,2.212022495334935e-13
	1.749898662456661e-06,2.448167801809452e-13
	7.042984402103755e-07,-2.290733498340956e-13
	9.284738555060338e-06,2.760795939687726e-11
	-9.332792833872149e-07,-1.289984388839289e-13
	-9.055757711883499e-06,-2.724988760815923e-11
	-7.042984402103761e-07,2.290733498340951e-13
	-9.284738555048744e-06,-2.760795939687727e-11
	-7.042984402103761e-07,2.290733498340951e-13
49		3.090295432513586e+00,0.000000000000000e+00