Title: * GA CMOS Amp | W=3.241743366758479e-05 L=8.235979971602149e-07 Vbias=0.6904664735775223
Date: Mon Sep  8 18:46:58 2025
Plotname: Operating Point
Flags: real
No. Variables: 10
No. Points:            1
Offset:    0.0000000000000000e+00
Command: Linear Technology Corporation LTspice
Variables:
	0	V(out)	voltage
	1	V(g)	voltage
	2	V(vdd)	voltage
	3	Id(M1)	device_current
	4	Ig(M1)	device_current
	5	Ib(M1)	device_current
	6	Is(M1)	device_current
	7	I(Rload)	device_current
	8	I(Vg)	device_current
	9	I(Vdd)	device_current
Values:
0		1.785374303988908e+00
	6.904664735775223e-01
	1.800000000000000e+00
	1.462569545962826e-06
	0.000000000000000e+00
	-1.795374303988908e-12
	-1.462567750588522e-06
	-1.462569601109243e-06
	0.000000000000000e+00
	-1.462569601109234e-06
