Title: * GA CMOS Amp | W=7.918335190035595e-06 L=5.154105926048669e-07 Vbias=1.2710634826982294
Date: Sat Sep  6 22:11:53 2025
Plotname: AC Analysis
Flags: complex forward log
No. Variables: 13
No. Points:          901
Offset:    0.0000000000000000e+00
Command: Linear Technology Corporation LTspice
Variables:
	0	frequency	frequency
	1	V(out)	voltage
	2	V(g)	voltage
	3	V(vdd)	voltage
	4	V(m1#dbody)	voltage
	5	V(m1#sbody)	voltage
	6	Id(M1)	device_current
	7	Ig(M1)	device_current
	8	Ib(M1)	device_current
	9	Is(M1)	device_current
	10	I(Rload)	device_current
	11	I(Vg)	device_current
	12	I(Vdd)	device_current
Values:
0		1.000000000000000e+00,0.000000000000000e+00
	5.490825590446236e-03,3.933774339406342e-10
	1.000000000000000e+00,0.000000000000000e+00
	0.000000000000000e+00,0.000000000000000e+00
	2.370035394371765e-05,3.321110331056729e-14
	2.370035390239501e-05,3.222237663018455e-14
	-5.490825590446229e-07,-3.933774339406336e-14
	1.758057841424621e-05,1.078832889948573e-12
	-1.264018876025249e-05,-1.725401262038403e-14
	-4.391307094949097e-06,-1.022241133934125e-12
	5.490825590446236e-07,3.933774339406342e-14
	-1.758057841427796e-05,-1.078832889948573e-12
	5.490825590446236e-07,3.933774339406342e-14
1		1.023292992280754e+00,0.000000000000000e+00
	5.490825590446236e-03,4.025403714728362e-10
	1.000000000000000e+00,0.000000000000000e+00
	0.000000000000000e+00,0.000000000000000e+00
	2.370035394371765e-05,3.398468928361567e-14
	2.370035390239501e-05,3.297293220029898e-14
	-5.490825590446229e-07,-4.025403714728357e-14
	1.758057841424621e-05,1.103962136126368e-12
	-1.264018876025249e-05,-1.765591020316267e-14
	-4.391307094949097e-06,-1.046052188775922e-12
	5.490825590446236e-07,4.025403714728362e-14
	-1.758057841427796e-05,-1.103962136126368e-12
	5.490825590446236e-07,4.025403714728362e-14
2		1.047128548050899e+00,0.000000000000000e+00
	5.490825590446236e-03,4.119167412382449e-10
	1.000000000000000e+00,0.000000000000000e+00
	0.000000000000000e+00,0.000000000000000e+00
	2.370035394371765e-05,3.477629438876276e-14
	2.370035390239501e-05,3.374097045551438e-14
	-5.490825590446229e-07,-4.119167412382449e-14
	1.758057841424621e-05,1.129676717641405e-12
	-1.264018876025249e-05,-1.806716918323463e-14
	-4.391307094949097e-06,-1.070417874334346e-12
	5.490825590446236e-07,4.119167412382449e-14
	-1.758057841427796e-05,-1.129676717641405e-12
	5.490825590446236e-07,4.119167412382449e-14
3		1.071519305237606e+00,0.000000000000000e+00
	5.490825590446236e-03,4.215115147122206e-10
	1.000000000000000e+00,0.000000000000000e+00
	0.000000000000000e+00,0.000000000000000e+00
	2.370035394371765e-05,3.558633834551341e-14
	2.370035390239501e-05,3.452689861987981e-14
	-5.490825590446229e-07,-4.215115147122214e-14
	1.758057841424621e-05,1.155990268705174e-12
	-1.264018876025249e-05,-1.848800761555478e-14
	-4.391307094949097e-06,-1.095351109618397e-12
	5.490825590446236e-07,4.215115147122206e-14
	-1.758057841427796e-05,-1.155990268705174e-12
	5.490825590446236e-07,4.215115147122206e-14
4		1.096478196143185e+00,0.000000000000000e+00
	5.490825590446236e-03,4.313297791706612e-10
	1.000000000000000e+00,0.000000000000000e+00
	0.000000000000000e+00,0.000000000000000e+00
	2.370035394371765e-05,3.641525064989577e-14
	2.370035390239501e-05,3.533113340291106e-14
	-5.490825590446229e-07,-4.313297791706610e-14
	1.758057841424621e-05,1.182916741110750e-12
	-1.264018876025249e-05,-1.891864863423043e-14
	-4.391307094949097e-06,-1.120865114559453e-12
	5.490825590446236e-07,4.313297791706613e-14
	-1.758057841427796e-05,-1.182916741110750e-12
	5.490825590446236e-07,4.313297791706613e-14
5		1.122018454301963e+00,0.000000000000000e+00
	5.490825590446236e-03,4.413767403873430e-10
	1.000000000000000e+00,0.000000000000000e+00
	0.000000000000000e+00,0.000000000000000e+00
	2.370035394371765e-05,3.726347080218553e-14
	2.370035390239501e-05,3.615410122053536e-14
	-5.490825590446229e-07,-4.413767403873426e-14
	1.758057841424621e-05,1.210470411630218e-12
	-1.264018876025249e-05,-1.935932057082986e-14
	-4.391307094949097e-06,-1.146973417020654e-12
	5.490825590446236e-07,4.413767403873431e-14
	-1.758057841427796e-05,-1.210470411630218e-12
	5.490825590446236e-07,4.413767403873431e-14
6		1.148153621496882e+00,0.000000000000000e+00
	5.490825590446236e-03,4.516577253940898e-10
	1.000000000000000e+00,0.000000000000000e+00
	0.000000000000000e+00,0.000000000000000e+00
	2.370035394371765e-05,3.813144853993493e-14
	2.370035390239501e-05,3.699623842118289e-14
	-5.490825590446229e-07,-4.516577253940898e-14
	1.758057841424621e-05,1.238665889584402e-12
	-1.264018876025249e-05,-1.981025707544684e-14
	-4.391307094949097e-06,-1.173689859969546e-12
	5.490825590446236e-07,4.516577253940898e-14
	-1.758057841427796e-05,-1.238665889584402e-12
	5.490825590446236e-07,4.516577253940898e-14
7		1.174897554939529e+00,0.000000000000000e+00
	5.490825590446236e-03,4.621781853052372e-10
	1.000000000000000e+00,0.000000000000000e+00
	0.000000000000000e+00,0.000000000000000e+00
	2.370035394371765e-05,3.901964407642962e-14
	2.370035390239501e-05,3.785799151714445e-14
	-5.490825590446229e-07,-4.621781853052383e-14
	1.758057841424621e-05,1.267518124588924e-12
	-1.264018876025249e-05,-2.027169724058498e-14
	-4.391307094949097e-06,-1.201028608817815e-12
	5.490825590446236e-07,4.621781853052373e-14
	-1.758057841427796e-05,-1.267518124588924e-12
	5.490825590446236e-07,4.621781853052373e-14
8		1.202264434617413e+00,0.000000000000000e+00
	5.490825590446236e-03,4.729436982078850e-10
	1.000000000000000e+00,0.000000000000000e+00
	0.000000000000000e+00,0.000000000000000e+00
	2.370035394371765e-05,3.992852834469968e-14
	2.370035390239501e-05,3.873981742131815e-14
	-5.490825590446229e-07,-4.729436982078853e-14
	1.758057841424621e-05,1.297042414480690e-12
	-1.264018876025249e-05,-2.074388572792771e-14
	-4.391307094949097e-06,-1.229004158931974e-12
	5.490825590446236e-07,4.729436982078851e-14
	-1.758057841427796e-05,-1.297042414480690e-12
	5.490825590446236e-07,4.729436982078851e-14
9		1.230268770812381e+00,0.000000000000000e+00
	5.490825590446236e-03,4.839599721194727e-10
	1.000000000000000e+00,0.000000000000000e+00
	0.000000000000000e+00,0.000000000000000e+00
	2.370035394371765e-05,4.085858324721463e-14
	2.370035390239501e-05,3.964218368947074e-14
	-5.490825590446229e-07,-4.839599721194724e-14
	1.758057841424621e-05,1.327254413429000e-12
	-1.264018876025249e-05,-2.122707289806118e-14
	-4.391307094949097e-06,-1.257631343318991e-12
	5.490825590446236e-07,4.839599721194728e-14
	-1.758057841427796e-05,-1.327254413428999e-12
	5.490825590446236e-07,4.839599721194728e-14
10		1.258925411794167e+00,0.000000000000000e+00
	5.490825590446236e-03,4.952328480142455e-10
	1.000000000000000e+00,0.000000000000000e+00
	0.000000000000000e+00,0.000000000000000e+00
	2.370035394371765e-05,4.181030191139455e-14
	2.370035390239501e-05,4.056556876814182e-14
	-5.490825590446229e-07,-4.952328480142448e-14
	1.758057841424621e-05,1.358170140235598e-12
	-1.264018876025249e-05,-2.172151494321872e-14
	-4.391307094949097e-06,-1.286925340490955e-12
	5.490825590446236e-07,4.952328480142456e-14
	-1.758057841427796e-05,-1.358170140235598e-12
	5.490825590446236e-07,4.952328480142456e-14
11		1.288249551693134e+00,0.000000000000000e+00
	5.490825590446236e-03,5.067683029202173e-10
	1.000000000000000e+00,0.000000000000000e+00
	0.000000000000000e+00,0.000000000000000e+00
	2.370035394371765e-05,4.278418895107267e-14
	2.370035390239501e-05,4.151046224832254e-14
	-5.490825590446229e-07,-5.067683029202179e-14
	1.758057841424621e-05,1.389805986828057e-12
	-1.264018876025249e-05,-2.222747402311740e-14
	-4.391307094949097e-06,-1.316901682512918e-12
	5.490825590446236e-07,5.067683029202173e-14
	-1.758057841427796e-05,-1.389805986828057e-12
	5.490825590446236e-07,5.067683029202173e-14
12		1.318256738556407e+00,0.000000000000000e+00
	5.490825590446236e-03,5.185724530882688e-10
	1.000000000000000e+00,0.000000000000000e+00
	0.000000000000000e+00,0.000000000000000e+00
	2.370035394371765e-05,4.378076073404832e-14
	2.370035390239501e-05,4.247736512504326e-14
	-5.490825590446237e-07,-5.185724530882668e-14
	1.758057841424621e-05,1.422178726950988e-12
	-1.264018876025249e-05,-2.274521840395854e-14
	-4.391307094949097e-06,-1.347576263238203e-12
	5.490825590446236e-07,5.185724530882689e-14
	-1.758057841427796e-05,-1.422178726950988e-12
	5.490825590446236e-07,5.185724530882689e-14
13		1.348962882591653e+00,0.000000000000000e+00
	5.490825590446236e-03,5.306515572350656e-10
	1.000000000000000e+00,0.000000000000000e+00
	0.000000000000000e+00,0.000000000000000e+00
	2.370035394371765e-05,4.480054565587206e-14
	2.370035390239501e-05,4.346679006300768e-14
	-5.490825590446237e-07,-5.306515572350653e-14
	1.758057841424621e-05,1.455305525059711e-12
	-1.264018876025249e-05,-2.327502260066602e-14
	-4.391307094949097e-06,-1.378965346735538e-12
	5.490825590446236e-07,5.306515572350657e-14
	-1.758057841427796e-05,-1.455305525059711e-12
	5.490825590446236e-07,5.306515572350657e-14
14		1.380384264602885e+00,0.000000000000000e+00
	5.490825590446236e-03,5.430120198615122e-10
	1.000000000000000e+00,0.000000000000000e+00
	0.000000000000000e+00,0.000000000000000e+00
	2.370035394371765e-05,4.584408442000787e-14
	2.370035390239501e-05,4.447926166841448e-14
	-5.490825590446237e-07,-5.430120198615109e-14
	1.758057841424621e-05,1.489203945421065e-12
	-1.264018876025249e-05,-2.381716752243770e-14
	-4.391307094949097e-06,-1.411085575912477e-12
	5.490825590446236e-07,5.430120198615122e-14
	-1.758057841427796e-05,-1.489203945421066e-12
	5.490825590446236e-07,5.430120198615122e-14
15		1.412537544622754e+00,0.000000000000000e+00
	5.490825590446236e-03,5.556603946485032e-10
	1.000000000000000e+00,0.000000000000000e+00
	0.000000000000000e+00,0.000000000000000e+00
	2.370035394371765e-05,4.691193032452135e-14
	2.370035390239501e-05,4.551531676711049e-14
	-5.490825590446237e-07,-5.556603946485018e-14
	1.758057841424621e-05,1.523891961426227e-12
	-1.264018876025249e-05,-2.437194062168727e-14
	-4.391307094949097e-06,-1.443953981339690e-12
	5.490825590446236e-07,5.556603946485032e-14
	-1.758057841427796e-05,-1.523891961426227e-12
	5.490825590446236e-07,5.556603946485032e-14
16		1.445439770745927e+00,0.000000000000000e+00
	5.490825590446236e-03,5.686033879317712e-10
	1.000000000000000e+00,0.000000000000000e+00
	0.000000000000000e+00,0.000000000000000e+00
	2.370035394371765e-05,4.800464955544570e-14
	2.370035390239501e-05,4.657550468922287e-14
	-5.490825590446237e-07,-5.686033879317705e-14
	1.758057841424621e-05,1.559387965120431e-12
	-1.264018876025249e-05,-2.493963604645523e-14
	-4.391307094949097e-06,-1.477587990280798e-12
	5.490825590446236e-07,5.686033879317712e-14
	-1.758057841427796e-05,-1.559387965120431e-12
	5.490825590446236e-07,5.686033879317712e-14
17		1.479108388168207e+00,0.000000000000000e+00
	5.490825590446236e-03,5.818478622576766e-10
	1.000000000000000e+00,0.000000000000000e+00
	0.000000000000000e+00,0.000000000000000e+00
	2.370035394371765e-05,4.912282148698099e-14
	2.370035390239501e-05,4.766038756042116e-14
	-5.490825590446237e-07,-5.818478622576774e-14
	1.758057841424621e-05,1.595710776954682e-12
	-1.264018876025249e-05,-2.552055479637013e-14
	-4.391307094949097e-06,-1.512005435932544e-12
	5.490825590446236e-07,5.818478622576766e-14
	-1.758057841427796e-05,-1.595710776954682e-12
	5.490825590446236e-07,5.818478622576766e-14
18		1.513561248436208e+00,0.000000000000000e+00
	5.490825590446237e-03,5.954008400218180e-10
	1.000000000000000e+00,0.000000000000000e+00
	0.000000000000000e+00,0.000000000000000e+00
	2.370035394371765e-05,5.026703898868610e-14
	2.370035390239501e-05,4.877054059996379e-14
	-5.490825590446229e-07,-5.954008400218178e-14
	1.758057841424621e-05,1.632879655764604e-12
	-1.264018876025249e-05,-2.611500488224254e-14
	-4.391307094949099e-06,-1.547224566880179e-12
	5.490825590446237e-07,5.954008400218180e-14
	-1.758057841427796e-05,-1.632879655764604e-12
	5.490825590446237e-07,5.954008400218180e-14
19		1.548816618912481e+00,0.000000000000000e+00
	5.490825590446237e-03,6.092695071924007e-10
	1.000000000000000e+00,0.000000000000000e+00
	0.000000000000000e+00,0.000000000000000e+00
	2.370035394371765e-05,5.143790873982593e-14
	2.370035390239501e-05,4.990655242568697e-14
	-5.490825590446229e-07,-6.092695071924009e-14
	1.758057841424621e-05,1.670914308981729e-12
	-1.264018876025249e-05,-2.672330148937647e-14
	-4.391307094949099e-06,-1.583264056773113e-12
	5.490825590446237e-07,6.092695071924007e-14
	-1.758057841427796e-05,-1.670914308981729e-12
	5.490825590446237e-07,6.092695071924007e-14
20		1.584893192461113e+00,0.000000000000000e+00
	5.490825590446237e-03,6.234612171203322e-10
	1.000000000000000e+00,0.000000000000000e+00
	0.000000000000000e+00,0.000000000000000e+00
	2.370035394371765e-05,5.263605155104084e-14
	2.370035390239501e-05,5.106902536609754e-14
	-5.490825590446229e-07,-6.234612171203322e-14
	1.758057841424621e-05,1.709834903082642e-12
	-1.264018876025249e-05,-2.734576714468478e-14
	-4.391307094949099e-06,-1.620143014225924e-12
	5.490825590446237e-07,6.234612171203322e-14
	-1.758057841427796e-05,-1.709834903082642e-12
	5.490825590446237e-07,6.234612171203322e-14
21		1.621810097358929e+00,0.000000000000000e+00
	5.490825590446237e-03,6.379834944380657e-10
	1.000000000000000e+00,0.000000000000000e+00
	0.000000000000000e+00,0.000000000000000e+00
	2.370035394371765e-05,5.386210269350860e-14
	2.370035390239501e-05,5.225857577973569e-14
	-5.490825590446229e-07,-6.379834944380651e-14
	1.758057841424621e-05,1.749662074281510e-12
	-1.264018876025249e-05,-2.798273188769722e-14
	-4.391307094949099e-06,-1.657880992950006e-12
	5.490825590446237e-07,6.379834944380657e-14
	-1.758057841427796e-05,-1.749662074281509e-12
	5.490825590446237e-07,6.379834944380657e-14
22		1.659586907437560e+00,0.000000000000000e+00
	5.490825590446237e-03,6.528440390492600e-10
	1.000000000000000e+00,0.000000000000000e+00
	0.000000000000000e+00,0.000000000000000e+00
	2.370035394371765e-05,5.511671223577369e-14
	2.370035390239501e-05,5.347583438197628e-14
	-5.490825590446229e-07,-6.528440390492602e-14
	1.758057841424621e-05,1.790416939471677e-12
	-1.264018876025249e-05,-2.863453344555177e-14
	-4.391307094949099e-06,-1.696498002121199e-12
	5.490825590446237e-07,6.528440390492601e-14
	-1.758057841427796e-05,-1.790416939471677e-12
	5.490825590446237e-07,6.528440390492601e-14
23		1.698243652461743e+00,0.000000000000000e+00
	5.490825590446237e-03,6.680507302113708e-10
	1.000000000000000e+00,0.000000000000000e+00
	0.000000000000000e+00,0.000000000000000e+00
	2.370035394371765e-05,5.640054538842211e-14
	2.370035390239501e-05,5.472144657944253e-14
	-5.490825590446229e-07,-6.680507302113687e-14
	1.758057841424621e-05,1.832121107422122e-12
	-1.264018876025249e-05,-2.930151741206200e-14
	-4.391307094949099e-06,-1.736014516988923e-12
	5.490825590446237e-07,6.680507302113708e-14
	-1.758057841427796e-05,-1.832121107422123e-12
	5.490825590446237e-07,6.680507302113708e-14
24		1.737800828749374e+00,0.000000000000000e+00
	5.490825590446237e-03,6.836116307133363e-10
	1.000000000000000e+00,0.000000000000000e+00
	0.000000000000000e+00,0.000000000000000e+00
	2.370035394371765e-05,5.771428285678495e-14
	2.370035390239501e-05,5.599607281220918e-14
	-5.490825590446229e-07,-6.836116307133339e-14
	1.758057841424621e-05,1.874796690234712e-12
	-1.264018876025249e-05,-2.998403743095554e-14
	-4.391307094949099e-06,-1.776451489732423e-12
	5.490825590446237e-07,6.836116307133363e-14
	-1.758057841427796e-05,-1.874796690234713e-12
	5.490825590446237e-07,6.836116307133363e-14
25		1.778279410038922e+00,0.000000000000000e+00
	5.490825590446237e-03,6.995349911505758e-10
	1.000000000000000e+00,0.000000000000000e+00
	0.000000000000000e+00,0.000000000000000e+00
	2.370035394371765e-05,5.905862120185728e-14
	2.370035390239501e-05,5.730038890397651e-14
	-5.490825590446229e-07,-6.995349911505773e-14
	1.758057841424621e-05,1.918466315068333e-12
	-1.264018876025249e-05,-3.068245538338063e-14
	-4.391307094949099e-06,-1.817830360569895e-12
	5.490825590446237e-07,6.995349911505759e-14
	-1.758057841427796e-05,-1.918466315068333e-12
	5.490825590446237e-07,6.995349911505759e-14
26		1.819700858609982e+00,0.000000000000000e+00
	5.490825590446237e-03,7.158292542995635e-10
	1.000000000000000e+00,0.000000000000000e+00
	0.000000000000000e+00,0.000000000000000e+00
	2.370035394371765e-05,6.043427320962413e-14
	2.370035390239501e-05,5.863508642040105e-14
	-5.490825590446229e-07,-7.158292542995636e-14
	1.758057841424621e-05,1.963153136136106e-12
	-1.264018876025249e-05,-3.139714157978029e-14
	-4.391307094949099e-06,-1.860173069126370e-12
	5.490825590446237e-07,7.158292542995635e-14
	-1.758057841427796e-05,-1.963153136136106e-12
	5.490825590446237e-07,7.158292542995635e-14
27		1.862087136662866e+00,0.000000000000000e+00
	5.490825590446237e-03,7.325030595943011e-10
	1.000000000000000e+00,0.000000000000000e+00
	0.000000000000000e+00,0.000000000000000e+00
	2.370035394371765e-05,6.184196826898890e-14
	2.370035390239501e-05,6.000087303577279e-14
	-5.490825590446229e-07,-7.325030595943049e-14
	1.758057841424621e-05,2.008880846982063e-12
	-1.264018876025249e-05,-3.212847495623586e-14
	-4.391307094949099e-06,-1.903502066066397e-12
	5.490825590446237e-07,7.325030595943011e-14
	-1.758057841427796e-05,-2.008880846982063e-12
	5.490825590446237e-07,7.325030595943011e-14
28		1.905460717963246e+00,0.000000000000000e+00
	5.490825590446237e-03,7.495652477070600e-10
	1.000000000000000e+00,0.000000000000000e+00
	0.000000000000000e+00,0.000000000000000e+00
	2.370035394371765e-05,6.328245275850508e-14
	2.370035390239501e-05,6.139847290823355e-14
	-5.490825590446229e-07,-7.495652477070591e-14
	1.758057841424621e-05,2.055673693043770e-12
	-1.264018876025249e-05,-3.287684327538386e-14
	-4.391307094949099e-06,-1.947840324997681e-12
	5.490825590446237e-07,7.495652477070600e-14
	-1.758057841427796e-05,-2.055673693043770e-12
	5.490825590446237e-07,7.495652477070600e-14
29		1.949844599758044e+00,0.000000000000000e+00
	5.490825590446237e-03,7.670248652358223e-10
	1.000000000000000e+00,0.000000000000000e+00
	0.000000000000000e+00,0.000000000000000e+00
	2.370035394371765e-05,6.475649044211614e-14
	2.370035390239501e-05,6.282862706373514e-14
	-5.490825590446229e-07,-7.670248652358184e-14
	1.758057841424621e-05,2.103556484507588e-12
	-1.264018876025249e-05,-3.364264333201294e-14
	-4.391307094949099e-06,-1.993211354651994e-12
	5.490825590446237e-07,7.670248652358224e-14
	-1.758057841427796e-05,-2.103556484507588e-12
	5.490825590446237e-07,7.670248652358224e-14
30		1.995262314968878e+00,0.000000000000000e+00
	5.490825590446237e-03,7.848911695009065e-10
	1.000000000000000e+00,0.000000000000000e+00
	0.000000000000000e+00,0.000000000000000e+00
	2.370035394371765e-05,6.626486287411307e-14
	2.370035390239501e-05,6.429209378894110e-14
	-5.490825590446229e-07,-7.848911695009083e-14
	1.758057841424621e-05,2.152554609463355e-12
	-1.264018876025249e-05,-3.442628116344969e-14
	-4.391307094949099e-06,-2.039639211349814e-12
	5.490825590446237e-07,7.848911695009065e-14
	-1.758057841427796e-05,-2.152554609463355e-12
	5.490825590446237e-07,7.848911695009065e-14
31		2.041737944669527e+00,0.000000000000000e+00
	5.490825590446237e-03,8.031736334533231e-10
	1.000000000000000e+00,0.000000000000000e+00
	0.000000000000000e+00,0.000000000000000e+00
	2.370035394371765e-05,6.780836981352501e-14
	2.370035390239501e-05,6.578964903328041e-14
	-5.490825590446229e-07,-8.031736334533203e-14
	1.758057841424621e-05,2.202694047365485e-12
	-1.264018876025249e-05,-3.522817226484498e-14
	-4.391307094949099e-06,-2.087148511755308e-12
	5.490825590446237e-07,8.031736334533231e-14
	-1.758057841427796e-05,-2.202694047365486e-12
	5.490825590446237e-07,8.031736334533231e-14
32		2.089296130854037e+00,0.000000000000000e+00
	5.490825590446237e-03,8.218819506974566e-10
	1.000000000000000e+00,0.000000000000000e+00
	0.000000000000000e+00,0.000000000000000e+00
	2.370035394371765e-05,6.938782964816198e-14
	2.370035390239501e-05,6.732208682036614e-14
	-5.490825590446229e-07,-8.218819506974551e-14
	1.758057841424621e-05,2.254001382807632e-12
	-1.264018876025249e-05,-3.604874180947510e-14
	-4.391307094949099e-06,-2.135764445928412e-12
	5.490825590446237e-07,8.218819506974567e-14
	-1.758057841427796e-05,-2.254001382807633e-12
	5.490825590446237e-07,8.218819506974567e-14
33		2.137962089502230e+00,0.000000000000000e+00
	5.490825590446237e-03,8.410260406307438e-10
	1.000000000000000e+00,0.000000000000000e+00
	0.000000000000000e+00,0.000000000000000e+00
	2.370035394371765e-05,7.100407982853490e-14
	2.370035390239501e-05,6.889021966899719e-14
	-5.490825590446229e-07,-8.410260406307411e-14
	1.758057841424621e-05,2.306503819618180e-12
	-1.264018876025249e-05,-3.688842487417411e-14
	-4.391307094949099e-06,-2.185512790680932e-12
	5.490825590446237e-07,8.410260406307439e-14
	-1.758057841427796e-05,-2.306503819618180e-12
	5.490825590446237e-07,8.410260406307439e-14
34		2.187761623949550e+00,0.000000000000000e+00
	5.490825590446237e-03,8.606160537030689e-10
	1.000000000000000e+00,0.000000000000000e+00
	0.000000000000000e+00,0.000000000000000e+00
	2.370035394371765e-05,7.265797731188299e-14
	2.370035390239501e-05,7.049487902396659e-14
	-5.490825590446229e-07,-8.606160537030640e-14
	1.758057841424621e-05,2.360229195284076e-12
	-1.264018876025249e-05,-3.774766667001741e-14
	-4.391307094949099e-06,-2.236419923243752e-12
	5.490825590446237e-07,8.606160537030689e-14
	-1.758057841427796e-05,-2.360229195284076e-12
	5.490825590446237e-07,8.606160537030689e-14
35		2.238721138568337e+00,0.000000000000000e+00
	5.490825590446237e-03,8.806623767986674e-10
	1.000000000000000e+00,0.000000000000000e+00
	0.000000000000000e+00,0.000000000000000e+00
	2.370035394371765e-05,7.435039901654392e-14
	2.370035390239501e-05,7.213691569690454e-14
	-5.490825590446229e-07,-8.806623767986664e-14
	1.758057841424621e-05,2.415205995710638e-12
	-1.264018876025249e-05,-3.862692277837862e-14
	-4.391307094949099e-06,-2.288512835252393e-12
	5.490825590446237e-07,8.806623767986675e-14
	-1.758057841427796e-05,-2.415205995710638e-12
	5.490825590446237e-07,8.806623767986675e-14
36		2.290867652767770e+00,0.000000000000000e+00
	5.490825590446237e-03,9.011756387433893e-10
	1.000000000000000e+00,0.000000000000000e+00
	0.000000000000000e+00,0.000000000000000e+00
	2.370035394371765e-05,7.608224228690726e-14
	2.370035390239501e-05,7.381720031738995e-14
	-5.490825590446237e-07,-9.011756387433881e-14
	1.758057841424621e-05,2.471463370325157e-12
	-1.264018876025249e-05,-3.952665939248467e-14
	-4.391307094949099e-06,-2.341819147058333e-12
	5.490825590446237e-07,9.011756387433893e-14
	-1.758057841427796e-05,-2.471463370325157e-12
	5.490825590446237e-07,9.011756387433893e-14
37		2.344228815319919e+00,0.000000000000000e+00
	5.490825590446237e-03,9.221667159402427e-10
	1.000000000000000e+00,0.000000000000000e+00
	0.000000000000000e+00,0.000000000000000e+00
	2.370035394371765e-05,7.785442536919863e-14
	2.370035390239501e-05,7.553662379456978e-14
	-5.490825590446237e-07,-9.221667159402434e-14
	1.758057841424621e-05,2.529031147532308e-12
	-1.264018876025249e-05,-4.044735356459780e-14
	-4.391307094949099e-06,-2.396367122373686e-12
	5.490825590446237e-07,9.221667159402427e-14
	-1.758057841427796e-05,-2.529031147532307e-12
	5.490825590446237e-07,9.221667159402427e-14
38		2.398832919019488e+00,0.000000000000000e+00
	5.490825590446237e-03,9.436467381362071e-10
	1.000000000000000e+00,0.000000000000000e+00
	0.000000000000000e+00,0.000000000000000e+00
	2.370035394371765e-05,7.966788789834592e-14
	2.370035390239501e-05,7.729609778953093e-14
	-5.490825590446237e-07,-9.436467381362074e-14
	1.758057841424621e-05,2.587939850529564e-12
	-1.264018876025249e-05,-4.138949345895492e-14
	-4.391307094949099e-06,-2.452185683256989e-12
	5.490825590446237e-07,9.436467381362071e-14
	-1.758057841427796e-05,-2.587939850529564e-12
	5.490825590446237e-07,9.436467381362071e-14
39		2.454708915685027e+00,0.000000000000000e+00
	5.490825590446237e-03,9.656270943233726e-10
	1.000000000000000e+00,0.000000000000000e+00
	0.000000000000000e+00,0.000000000000000e+00
	2.370035394371765e-05,8.152359139618607e-14
	2.370035390239501e-05,7.909655519867487e-14
	-5.490825590446237e-07,-9.656270943233718e-14
	1.758057841424621e-05,2.648220713491005e-12
	-1.264018876025249e-05,-4.235357861059867e-14
	-4.391307094949099e-06,-2.509304425448070e-12
	5.490825590446237e-07,9.656270943233726e-14
	-1.758057841427796e-05,-2.648220713491006e-12
	5.490825590446237e-07,9.656270943233726e-14
40		2.511886431509577e+00,0.000000000000000e+00
	5.490825590446237e-03,9.881194387775338e-10
	1.000000000000000e+00,0.000000000000000e+00
	0.000000000000000e+00,0.000000000000000e+00
	2.370035394371765e-05,8.342251978127680e-14
	2.370035390239501e-05,8.093895064835187e-14
	-5.490825590446237e-07,-9.881194387775353e-14
	1.758057841424621e-05,2.709905698128085e-12
	-1.264018876025249e-05,-4.334012019023767e-14
	-4.391307094949099e-06,-2.567753634060093e-12
	5.490825590446237e-07,9.881194387775339e-14
	-1.758057841427796e-05,-2.709905698128084e-12
	5.490825590446237e-07,9.881194387775339e-14
41		2.570395782768860e+00,0.000000000000000e+00
	5.490825590446237e-03,1.011135697237442e-09
	1.000000000000000e+00,0.000000000000000e+00
	0.000000000000000e+00,0.000000000000000e+00
	2.370035394371765e-05,8.536567989058313e-14
	2.370035390239501e-05,8.282426100101625e-14
	-5.490825590446237e-07,-1.011135697237439e-13
	1.758057841424621e-05,2.773027510636153e-12
	-1.264018876025249e-05,-4.434964127527582e-14
	-4.391307094949099e-06,-2.627564299637134e-12
	5.490825590446237e-07,1.011135697237442e-13
	-1.758057841427796e-05,-2.773027510636153e-12
	5.490825590446237e-07,1.011135697237442e-13
42		2.630267991895378e+00,0.000000000000000e+00
	5.490825590446237e-03,1.034688073227989e-09
	1.000000000000000e+00,0.000000000000000e+00
	0.000000000000000e+00,0.000000000000000e+00
	2.370035394371765e-05,8.735410201331579e-14
	2.370035390239501e-05,8.475348587317208e-14
	-5.490825590446229e-07,-1.034688073227984e-13
	1.758057841424621e-05,2.837619619035720e-12
	-1.264018876025249e-05,-4.538267712715503e-14
	-4.391307094949101e-06,-2.688768134585766e-12
	5.490825590446238e-07,1.034688073227989e-13
	-1.758057841427796e-05,-2.837619619035720e-12
	5.490825590446238e-07,1.034688073227989e-13
43		2.691534803926912e+00,0.000000000000000e+00
	5.490825590446237e-03,1.058789054530677e-09
	1.000000000000000e+00,0.000000000000000e+00
	0.000000000000000e+00,0.000000000000000e+00
	2.370035394371765e-05,8.938884043720419e-14
	2.370035390239501e-05,8.672764816538289e-14
	-5.490825590446229e-07,-1.058789054530679e-13
	1.758057841424621e-05,2.903716270917636e-12
	-1.264018876025249e-05,-4.643977547515781e-14
	-4.391307094949101e-06,-2.751397589989410e-12
	5.490825590446238e-07,1.058789054530677e-13
	-1.758057841427796e-05,-2.903716270917635e-12
	5.490825590446238e-07,1.058789054530677e-13
44		2.754228703338163e+00,0.000000000000000e+00
	5.490825590446237e-03,1.083451419804807e-09
	1.000000000000000e+00,0.000000000000000e+00
	0.000000000000000e+00,0.000000000000000e+00
	2.370035394371765e-05,9.147097400749354e-14
	2.370035390239501e-05,8.874779460462709e-14
	-5.490825590446229e-07,-1.083451419804806e-13
	1.758057841424621e-05,2.971352511601620e-12
	-1.264018876025249e-05,-4.752149680682062e-14
	-4.391307094949101e-06,-2.815485872814319e-12
	5.490825590446238e-07,1.083451419804807e-13
	-1.758057841427796e-05,-2.971352511601621e-12
	5.490825590446238e-07,1.083451419804807e-13
45		2.818382931264450e+00,0.000000000000000e+00
	5.490825590446237e-03,1.108688245362892e-09
	1.000000000000000e+00,0.000000000000000e+00
	0.000000000000000e+00,0.000000000000000e+00
	2.370035394371765e-05,9.360160669896314e-14
	2.370035390239501e-05,9.081499629928662e-14
	-5.490825590446229e-07,-1.108688245362892e-13
	1.758057841424621e-05,3.040564202717756e-12
	-1.264018876025249e-05,-4.862841466511177e-14
	-4.391307094949101e-06,-2.881066963516355e-12
	5.490825590446238e-07,1.108688245362892e-13
	-1.758057841427796e-05,-3.040564202717757e-12
	5.490825590446238e-07,1.108688245362892e-13
46		2.884031503126602e+00,0.000000000000000e+00
	5.490825590446237e-03,1.134512912103893e-09
	1.000000000000000e+00,0.000000000000000e+00
	0.000000000000000e+00,0.000000000000000e+00
	2.370035394371765e-05,9.578186820126824e-14
	2.370035390239501e-05,9.293034930706261e-14
	-5.490825590446229e-07,-1.134512912103887e-13
	1.758057841424621e-05,3.111388041220797e-12
	-1.264018876025249e-05,-4.976111595253151e-14
	-4.391307094949101e-06,-2.948175634057877e-12
	5.490825590446238e-07,1.134512912103893e-13
	-1.758057841427796e-05,-3.111388041220798e-12
	5.490825590446238e-07,1.134512912103893e-13
47		2.951209226666381e+00,0.000000000000000e+00
	5.490825590446237e-03,1.160939112607944e-09
	1.000000000000000e+00,0.000000000000000e+00
	0.000000000000000e+00,0.000000000000000e+00
	2.370035394371765e-05,9.801291451791664e-14
	2.370035390239501e-05,9.509497521611984e-14
	-5.490825590446237e-07,-1.160939112607942e-13
	1.758057841424621e-05,3.183861578847384e-12
	-1.264018876025249e-05,-5.092020124229556e-14
	-4.391307094949101e-06,-3.016847466344295e-12
	5.490825590446238e-07,1.160939112607945e-13
	-1.758057841427796e-05,-3.183861578847385e-12
	5.490825590446238e-07,1.160939112607945e-13
48		3.019951720402012e+00,0.000000000000000e+00
	5.490825590446237e-03,1.187980858396347e-09
	1.000000000000000e+00,0.000000000000000e+00
	0.000000000000000e+00,0.000000000000000e+00
	2.370035394371765e-05,1.002959285791967e-13
	2.370035390239501e-05,9.731002173976741e-14
	-5.490825590446237e-07,-1.187980858396346e-13
	1.758057841424621e-05,3.258023242026466e-12
	-1.264018876025249e-05,-5.210628509676679e-14
	-4.391307094949101e-06,-3.087118871090065e-12
	5.490825590446238e-07,1.187980858396347e-13
	-1.758057841427796e-05,-3.258023242026467e-12
	5.490825590446238e-07,1.187980858396347e-13
49		3.090295432513586e+00,0.000000000000000e+00
	5.490825590446237e-03,1.215652487360657e-09
	1.000000000000000e+00,0.000000000000000e+00
	0.000000000000000e+00,0.000000000000000e+00