Title: * Netlist adaptada do 'CMOS class AB Output STAGES_FINAL.asc'
Date: Sat Oct 18 16:39:49 2025
Plotname: AC Analysis
Flags: complex forward log
No. Variables: 25
No. Points:         1001
Offset:    0.0000000000000000e+00
Command: Linear Technology Corporation LTspice
Variables:
	0	frequency	frequency
	1	V(out)	voltage
	2	V(bias)	voltage
	3	V(in)	voltage
	4	V(vdd)	voltage
	5	Id(M8)	device_current
	6	Ig(M8)	device_current
	7	Ib(M8)	device_current
	8	Is(M8)	device_current
	9	Id(M2)	device_current
	10	Ig(M2)	device_current
	11	Ib(M2)	device_current
	12	Is(M2)	device_current
	13	Id(M6)	device_current
	14	Ig(M6)	device_current
	15	Ib(M6)	device_current
	16	Is(M6)	device_current
	17	Id(M3)	device_current
	18	Ig(M3)	device_current
	19	Ib(M3)	device_current
	20	Is(M3)	device_current
	21	I(V4)	device_current
	22	I(Vdd)	device_current
	23	I(V2)	device_current
	24	I(Vdd1)	device_current
Values:
0		1.000000000000000e+08,0.000000000000000e+00
	0.000000000000000e+00,0.000000000000000e+00
	0.000000000000000e+00,0.000000000000000e+00
	1.000000000000000e+00,0.000000000000000e+00
	0.000000000000000e+00,0.000000000000000e+00
	0.000000000000000e+00,0.000000000000000e+00
	0.000000000000000e+00,0.000000000000000e+00
	0.000000000000000e+00,0.000000000000000e+00
	0.000000000000000e+00,0.000000000000000e+00
	1.053255660504806e-03,2.192809019721953e-06
	0.000000000000000e+00,-2.354916946029004e-06
	-1.386635007814537e-12,-1.464519445208283e-06
	-1.053255659118171e-03,1.626627371515334e-06
	7.545347019163466e-04,-4.121084391254115e-06
	0.000000000000000e+00,9.497687693612507e-06
	0.000000000000000e+00,-1.255518911104278e-06
	-7.545347019163466e-04,-4.121084391254114e-06
	8.258080403909295e-04,-2.413535920453509e-06
	0.000000000000000e+00,7.798078679064332e-06
	-1.000000000000000e-12,-1.252308227319577e-06
	-8.258080393909295e-04,-4.132234531291247e-06
	0.000000000000000e+00,2.354916946029004e-06
	1.580342742307276e-03,1.076114606096922e-05
	-1.879063700895735e-03,-1.707503947194529e-05
	-7.545347019163466e-04,4.121084391254115e-06
1		1.002305238077900e+08,0.000000000000000e+00
	0.000000000000000e+00,0.000000000000000e+00
	0.000000000000000e+00,0.000000000000000e+00
	1.000000000000000e+00,0.000000000000000e+00
	0.000000000000000e+00,0.000000000000000e+00
	0.000000000000000e+00,0.000000000000000e+00
	0.000000000000000e+00,0.000000000000000e+00
	0.000000000000000e+00,0.000000000000000e+00
	0.000000000000000e+00,0.000000000000000e+00
	1.053255660504806e-03,2.197863966571778e-06
	0.000000000000000e+00,-2.360345590243281e-06
	-1.386635007814537e-12,-1.467895511199202e-06
	-1.053255659118171e-03,1.630377134870705e-06
	7.545347019163466e-04,-4.130584471915072e-06
	0.000000000000000e+00,9.519582124935823e-06
	0.000000000000000e+00,-1.258413181105679e-06
	-7.545347019163466e-04,-4.130584471915072e-06
	8.258080403909295e-04,-2.419099695359717e-06
	0.000000000000000e+00,7.816055106969771e-06
	-1.000000000000000e-12,-1.255195095930461e-06
	-8.258080393909295e-04,-4.141760315679592e-06
	0.000000000000000e+00,2.360345590243281e-06
	1.580342742307276e-03,1.078595306463081e-05
	-1.879063700895735e-03,-1.711440150311765e-05
	-7.545347019163466e-04,4.130584471915072e-06
2		1.004615790278395e+08,0.000000000000000e+00
	0.000000000000000e+00,0.000000000000000e+00
	0.000000000000000e+00,0.000000000000000e+00
	1.000000000000000e+00,0.000000000000000e+00
	0.000000000000000e+00,0.000000000000000e+00
	0.000000000000000e+00,0.000000000000000e+00
	0.000000000000000e+00,0.000000000000000e+00
	0.000000000000000e+00,0.000000000000000e+00
	0.000000000000000e+00,0.000000000000000e+00
	1.053255660504806e-03,2.202930566277563e-06
	0.000000000000000e+00,-2.365786748774912e-06
	-1.386635007814537e-12,-1.471279359825997e-06
	-1.053255659118171e-03,1.634135542323346e-06
	7.545347019163466e-04,-4.140106452523712e-06
	0.000000000000000e+00,9.541527028135918e-06
	0.000000000000000e+00,-1.261314123088495e-06
	-7.545347019163466e-04,-4.140106452523712e-06
	8.258080403909295e-04,-2.424676296091696e-06
	0.000000000000000e+00,7.834072974821318e-06
	-1.000000000000000e-12,-1.258088619460793e-06
	-8.258080393909295e-04,-4.151308059268831e-06
	0.000000000000000e+00,2.365786748774912e-06
	1.580342742307276e-03,1.081081725434183e-05
	-1.879063700895735e-03,-1.715385427314310e-05
	-7.545347019163466e-04,4.140106452523712e-06
3		1.006931668851804e+08,0.000000000000000e+00
	0.000000000000000e+00,0.000000000000000e+00
	0.000000000000000e+00,0.000000000000000e+00
	1.000000000000000e+00,0.000000000000000e+00
	0.000000000000000e+00,0.000000000000000e+00
	0.000000000000000e+00,0.000000000000000e+00
	0.000000000000000e+00,0.000000000000000e+00
	0.000000000000000e+00,0.000000000000000e+00
	0.000000000000000e+00,0.000000000000000e+00
	1.053255660504806e-03,2.208008845701915e-06
	0.000000000000000e+00,-2.371240450472379e-06
	-1.386635007814537e-12,-1.474671009029495e-06
	-1.053255659118171e-03,1.637902613799959e-06
	7.545347019163466e-04,-4.149650383564627e-06
	0.000000000000000e+00,9.563522519562484e-06
	0.000000000000000e+00,-1.264221752433230e-06
	-7.545347019163466e-04,-4.149650383564627e-06
	8.258080403909295e-04,-2.430265752216026e-06
	0.000000000000000e+00,7.852132378147922e-06
	-1.000000000000000e-12,-1.260988813251746e-06
	-8.258080393909295e-04,-4.160877812680149e-06
	0.000000000000000e+00,2.371240450472379e-06
	1.580342742307276e-03,1.083573876192975e-05
	-1.879063700895735e-03,-1.719339799119629e-05
	-7.545347019163466e-04,4.149650383564627e-06
4		1.009252886076684e+08,0.000000000000000e+00
	0.000000000000000e+00,0.000000000000000e+00
	0.000000000000000e+00,0.000000000000000e+00
	1.000000000000000e+00,0.000000000000000e+00
	0.000000000000000e+00,0.000000000000000e+00
	0.000000000000000e+00,0.000000000000000e+00
	0.000000000000000e+00,0.000000000000000e+00
	0.000000000000000e+00,0.000000000000000e+00
	0.000000000000000e+00,0.000000000000000e+00
	1.053255660504806e-03,2.213098831769367e-06
	0.000000000000000e+00,-2.376706724250664e-06
	-1.386635007814537e-12,-1.478070476791885e-06
	-1.053255659118171e-03,1.641678369273182e-06
	7.545347019163466e-04,-4.159216315638792e-06
	0.000000000000000e+00,9.585568715833432e-06
	0.000000000000000e+00,-1.267136084555849e-06
	-7.545347019163466e-04,-4.159216315638791e-06
	8.258080403909295e-04,-2.435868093367451e-06
	0.000000000000000e+00,7.870233412698738e-06
	-1.000000000000000e-12,-1.263895692679859e-06
	-8.258080393909295e-04,-4.170469626651427e-06
	0.000000000000000e+00,2.376706724250664e-06
	1.580342742307276e-03,1.086071771952592e-05
	-1.879063700895735e-03,-1.723303286693408e-05
	-7.545347019163466e-04,4.159216315638792e-06
5		1.011579454259898e+08,0.000000000000000e+00
	0.000000000000000e+00,0.000000000000000e+00
	0.000000000000000e+00,0.000000000000000e+00
	1.000000000000000e+00,0.000000000000000e+00
	0.000000000000000e+00,0.000000000000000e+00
	0.000000000000000e+00,0.000000000000000e+00
	0.000000000000000e+00,0.000000000000000e+00
	0.000000000000000e+00,0.000000000000000e+00
	0.000000000000000e+00,0.000000000000000e+00
	1.053255660504806e-03,2.218200551466516e-06
	0.000000000000000e+00,-2.382185599091406e-06
	-1.386635007814537e-12,-1.481477781136804e-06
	-1.053255659118171e-03,1.645462828761695e-06
	7.545347019163466e-04,-4.168804299463823e-06
	0.000000000000000e+00,9.607665733835493e-06
	0.000000000000000e+00,-1.270057134907847e-06
	-7.545347019163466e-04,-4.168804299463822e-06
	8.258080403909295e-04,-2.441483349249022e-06
	0.000000000000000e+00,7.888376174443647e-06
	-1.000000000000000e-12,-1.266809273157118e-06
	-8.258080393909295e-04,-4.180083552037506e-06
	0.000000000000000e+00,2.382185599091406e-06
	1.580342742307276e-03,1.088575425956630e-05
	-1.879063700895735e-03,-1.727275911049663e-05
	-7.545347019163466e-04,4.168804299463823e-06
6		1.013911385736679e+08,0.000000000000000e+00
	0.000000000000000e+00,0.000000000000000e+00
	0.000000000000000e+00,0.000000000000000e+00
	1.000000000000000e+00,0.000000000000000e+00
	0.000000000000000e+00,0.000000000000000e+00
	0.000000000000000e+00,0.000000000000000e+00
	0.000000000000000e+00,0.000000000000000e+00
	0.000000000000000e+00,0.000000000000000e+00
	0.000000000000000e+00,0.000000000000000e+00
	1.053255660504806e-03,2.223314031842175e-06
	0.000000000000000e+00,-2.387677104043056e-06
	-1.386635007814537e-12,-1.484892940129443e-06
	-1.053255659118171e-03,1.649256012330324e-06
	7.545347019163466e-04,-4.178414385874258e-06
	0.000000000000000e+00,9.629813690724861e-06
	0.000000000000000e+00,-1.272984918976345e-06
	-7.545347019163466e-04,-4.178414385874258e-06
	8.258080403909295e-04,-2.447111549632268e-06
	0.000000000000000e+00,7.906560759573770e-06
	-1.000000000000000e-12,-1.269729570131036e-06
	-8.258080393909295e-04,-4.189719639810465e-06
	0.000000000000000e+00,2.387677104043056e-06
	1.580342742307276e-03,1.091084851479211e-05
	-1.879063700895735e-03,-1.731257693250854e-05
	-7.545347019163466e-04,4.178414385874258e-06
7		1.016248692870695e+08,0.000000000000000e+00
	0.000000000000000e+00,0.000000000000000e+00
	0.000000000000000e+00,0.000000000000000e+00
	1.000000000000000e+00,0.000000000000000e+00
	0.000000000000000e+00,0.000000000000000e+00
	0.000000000000000e+00,0.000000000000000e+00
	0.000000000000000e+00,0.000000000000000e+00
	0.000000000000000e+00,0.000000000000000e+00
	0.000000000000000e+00,0.000000000000000e+00
	1.053255660504806e-03,2.228439300007506e-06
	0.000000000000000e+00,-2.393181268221025e-06
	-1.386635007814537e-12,-1.488315971876634e-06
	-1.053255659118171e-03,1.653057940090153e-06
	7.545347019163466e-04,-4.188046625821819e-06
	0.000000000000000e+00,9.652012703927799e-06
	0.000000000000000e+00,-1.275919452284161e-06
	-7.545347019163466e-04,-4.188046625821819e-06
	8.258080403909295e-04,-2.452752724357348e-06
	0.000000000000000e+00,7.924787264501967e-06
	-1.000000000000000e-12,-1.272656599084737e-06
	-8.258080393909295e-04,-4.199377941059880e-06
	0.000000000000000e+00,2.393181268221025e-06
	1.580342742307276e-03,1.093600061825060e-05
	-1.879063700895735e-03,-1.735248654407992e-05
	-7.545347019163466e-04,4.188046625821819e-06
8		1.018591388054117e+08,0.000000000000000e+00
	0.000000000000000e+00,0.000000000000000e+00
	0.000000000000000e+00,0.000000000000000e+00
	1.000000000000000e+00,0.000000000000000e+00
	0.000000000000000e+00,0.000000000000000e+00
	0.000000000000000e+00,0.000000000000000e+00
	0.000000000000000e+00,0.000000000000000e+00
	0.000000000000000e+00,0.000000000000000e+00
	0.000000000000000e+00,0.000000000000000e+00
	1.053255660504806e-03,2.233576383136171e-06
	0.000000000000000e+00,-2.398698120807844e-06
	-1.386635007814537e-12,-1.491746894526950e-06
	-1.053255659118171e-03,1.656868632198623e-06
	7.545347019163466e-04,-4.197701070375682e-06
	0.000000000000000e+00,9.674262891141264e-06
	0.000000000000000e+00,-1.278860750389900e-06
	-7.545347019163466e-04,-4.197701070375682e-06
	8.258080403909295e-04,-2.458406903333209e-06
	0.000000000000000e+00,7.943055785863350e-06
	-1.000000000000000e-12,-1.275590375537038e-06
	-8.258080393909295e-04,-4.209058506993104e-06
	0.000000000000000e+00,2.398698120807844e-06
	1.580342742307276e-03,1.096121070329572e-05
	-1.879063700895735e-03,-1.739248815680757e-05
	-7.545347019163466e-04,4.197701070375682e-06
9		1.020939483707680e+08,0.000000000000000e+00
	0.000000000000000e+00,0.000000000000000e+00
	0.000000000000000e+00,0.000000000000000e+00
	1.000000000000000e+00,0.000000000000000e+00
	0.000000000000000e+00,0.000000000000000e+00
	0.000000000000000e+00,0.000000000000000e+00
	0.000000000000000e+00,0.000000000000000e+00
	0.000000000000000e+00,0.000000000000000e+00
	0.000000000000000e+00,0.000000000000000e+00
	1.053255660504806e-03,2.238725308464474e-06
	0.000000000000000e+00,-2.404227691053316e-06
	-1.386635007814537e-12,-1.495185726270802e-06
	-1.053255659118171e-03,1.660688108859645e-06
	7.545347019163466e-04,-4.207377770722753e-06
	0.000000000000000e+00,9.696564370333536e-06
	0.000000000000000e+00,-1.281808828888030e-06
	-7.545347019163466e-04,-4.207377770722752e-06
	8.258080403909295e-04,-2.464074116537744e-06
	0.000000000000000e+00,7.961366420515805e-06
	-1.000000000000000e-12,-1.278530915042528e-06
	-8.258080393909295e-04,-4.218761388935531e-06
	0.000000000000000e+00,2.404227691053316e-06
	1.580342742307276e-03,1.098647890358884e-05
	-1.879063700895735e-03,-1.743258198277607e-05
	-7.545347019163466e-04,4.207377770722753e-06
10		1.023292992280754e+08,0.000000000000000e+00
	0.000000000000000e+00,0.000000000000000e+00
	0.000000000000000e+00,0.000000000000000e+00
	1.000000000000000e+00,0.000000000000000e+00
	0.000000000000000e+00,0.000000000000000e+00
	0.000000000000000e+00,0.000000000000000e+00
	0.000000000000000e+00,0.000000000000000e+00
	0.000000000000000e+00,0.000000000000000e+00
	0.000000000000000e+00,0.000000000000000e+00
	1.053255660504806e-03,2.243886103291504e-06
	0.000000000000000e+00,-2.409770008274674e-06
	-1.386635007814537e-12,-1.498632485340534e-06
	-1.053255659118171e-03,1.664516390323704e-06
	7.545347019163466e-04,-4.217076778167932e-06
	0.000000000000000e+00,9.718917259744834e-06
	0.000000000000000e+00,-1.284763703408970e-06
	-7.545347019163466e-04,-4.217076778167931e-06
	8.258080403909295e-04,-2.469754394017955e-06
	0.000000000000000e+00,7.979719265540490e-06
	-1.000000000000000e-12,-1.281478233191656e-06
	-8.258080393909295e-04,-4.228486638330878e-06
	0.000000000000000e+00,2.409770008274674e-06
	1.580342742307276e-03,1.101180535309944e-05
	-1.879063700895735e-03,-1.747276823455887e-05
	-7.545347019163466e-04,4.217076778167932e-06
11		1.025651926251407e+08,0.000000000000000e+00
	0.000000000000000e+00,0.000000000000000e+00
	0.000000000000000e+00,0.000000000000000e+00
	1.000000000000000e+00,0.000000000000000e+00
	0.000000000000000e+00,0.000000000000000e+00
	0.000000000000000e+00,0.000000000000000e+00
	0.000000000000000e+00,0.000000000000000e+00
	0.000000000000000e+00,0.000000000000000e+00
	0.000000000000000e+00,0.000000000000000e+00
	1.053255660504806e-03,2.249058794979281e-06
	0.000000000000000e+00,-2.415325101856729e-06
	-1.386635007814537e-12,-1.502087190010518e-06
	-1.053255659118171e-03,1.668353496887966e-06
	7.545347019163466e-04,-4.226798144134391e-06
	0.000000000000000e+00,9.741321677887954e-06
	0.000000000000000e+00,-1.287725389619172e-06
	-7.545347019163466e-04,-4.226798144134390e-06
	8.258080403909295e-04,-2.475447765890105e-06
	0.000000000000000e+00,7.998114418242363e-06
	-1.000000000000000e-12,-1.284432345610809e-06
	-8.258080393909295e-04,-4.238234306741449e-06
	0.000000000000000e+00,2.415325101856729e-06
	1.580342742307276e-03,1.103719018610582e-05
	-1.879063700895735e-03,-1.751304712521949e-05
	-7.545347019163466e-04,4.226798144134391e-06
12		1.028016298126473e+08,0.000000000000000e+00
	0.000000000000000e+00,0.000000000000000e+00
	0.000000000000000e+00,0.000000000000000e+00
	1.000000000000000e+00,0.000000000000000e+00
	0.000000000000000e+00,0.000000000000000e+00
	0.000000000000000e+00,0.000000000000000e+00
	0.000000000000000e+00,0.000000000000000e+00
	0.000000000000000e+00,0.000000000000000e+00
	0.000000000000000e+00,0.000000000000000e+00
	1.053255660504806e-03,2.254243410952903e-06
	0.000000000000000e+00,-2.420893001252036e-06
	-1.386635007814537e-12,-1.505549858597255e-06
	-1.053255659118171e-03,1.672199448896389e-06
	7.545347019163466e-04,-4.236541920163845e-06
	0.000000000000000e+00,9.763777743548889e-06
	0.000000000000000e+00,-1.290693903221200e-06
	-7.545347019163466e-04,-4.236541920163845e-06
	8.258080403909295e-04,-2.481154262339886e-06
	0.000000000000000e+00,8.016551976150692e-06
	-1.000000000000000e-12,-1.287393267962397e-06
	-8.258080393909295e-04,-4.248004445848410e-06
	0.000000000000000e+00,2.420893001252036e-06
	1.580342742307276e-03,1.106263353719585e-05
	-1.879063700895735e-03,-1.755341886831260e-05
	-7.545347019163466e-04,4.236541920163845e-06
13		1.030386120441616e+08,0.000000000000000e+00
	0.000000000000000e+00,0.000000000000000e+00
	0.000000000000000e+00,0.000000000000000e+00
	1.000000000000000e+00,0.000000000000000e+00
	0.000000000000000e+00,0.000000000000000e+00
	0.000000000000000e+00,0.000000000000000e+00
	0.000000000000000e+00,0.000000000000000e+00
	0.000000000000000e+00,0.000000000000000e+00
	0.000000000000000e+00,0.000000000000000e+00
	1.053255660504806e-03,2.259439978700685e-06
	0.000000000000000e+00,-2.426473735981043e-06
	-1.386635007814537e-12,-1.509020509459470e-06
	-1.053255659118171e-03,1.676054266739827e-06
	7.545347019163466e-04,-4.246308157916824e-06
	0.000000000000000e+00,9.786285575787467e-06
	0.000000000000000e+00,-1.293669259953819e-06
	-7.545347019163466e-04,-4.246308157916824e-06
	8.258080403909295e-04,-2.486873913622575e-06
	0.000000000000000e+00,8.035032037019576e-06
	-1.000000000000000e-12,-1.290361015944935e-06
	-8.258080393909295e-04,-4.257797107452066e-06
	0.000000000000000e+00,2.426473735981043e-06
	1.580342742307276e-03,1.108813554126764e-05
	-1.879063700895735e-03,-1.759388367788515e-05
	-7.545347019163466e-04,4.246308157916824e-06
14		1.032761405761397e+08,0.000000000000000e+00
	0.000000000000000e+00,0.000000000000000e+00
	0.000000000000000e+00,0.000000000000000e+00
	1.000000000000000e+00,0.000000000000000e+00
	0.000000000000000e+00,0.000000000000000e+00
	0.000000000000000e+00,0.000000000000000e+00
	0.000000000000000e+00,0.000000000000000e+00
	0.000000000000000e+00,0.000000000000000e+00
	0.000000000000000e+00,0.000000000000000e+00
	1.053255660504806e-03,2.264648525774315e-06
	0.000000000000000e+00,-2.432067335632250e-06
	-1.386635007814537e-12,-1.512499160998208e-06
	-1.053255659118171e-03,1.679917970856143e-06
	7.545347019163466e-04,-4.256096909172951e-06
	0.000000000000000e+00,9.808845293937973e-06
	0.000000000000000e+00,-1.296651475592073e-06
	-7.545347019163466e-04,-4.256096909172950e-06
	8.258080403909295e-04,-2.492606750063194e-06
	0.000000000000000e+00,8.053554698828458e-06
	-1.000000000000000e-12,-1.293335605293129e-06
	-8.258080393909295e-04,-4.267612343472136e-06
	0.000000000000000e+00,2.432067335632250e-06
	1.580342742307276e-03,1.111369633353029e-05
	-1.879063700895735e-03,-1.763444176847755e-05
	-7.545347019163466e-04,4.256096909172951e-06
15		1.035142166679343e+08,0.000000000000000e+00
	0.000000000000000e+00,0.000000000000000e+00
	0.000000000000000e+00,0.000000000000000e+00
	1.000000000000000e+00,0.000000000000000e+00
	0.000000000000000e+00,0.000000000000000e+00
	0.000000000000000e+00,0.000000000000000e+00
	0.000000000000000e+00,0.000000000000000e+00
	0.000000000000000e+00,0.000000000000000e+00
	0.000000000000000e+00,0.000000000000000e+00
	1.053255660504806e-03,2.269869079788989e-06
	0.000000000000000e+00,-2.437673829862365e-06
	-1.386635007814537e-12,-1.515985831656932e-06
	-1.053255659118171e-03,1.683790581730308e-06
	7.545347019163466e-04,-4.265908225831207e-06
	0.000000000000000e+00,9.831457017609786e-06
	0.000000000000000e+00,-1.299640565947372e-06
	-7.545347019163466e-04,-4.265908225831206e-06
	8.258080403909295e-04,-2.498352802056668e-06
	0.000000000000000e+00,8.072120059782645e-06
	-1.000000000000000e-12,-1.296317051777954e-06
	-8.258080393909295e-04,-4.277450205948022e-06
	0.000000000000000e+00,2.437673829862365e-06
	1.580342742307276e-03,1.113931604950455e-05
	-1.879063700895735e-03,-1.767509335512475e-05
	-7.545347019163466e-04,4.265908225831207e-06
16		1.037528415818012e+08,0.000000000000000e+00
	0.000000000000000e+00,0.000000000000000e+00
	0.000000000000000e+00,0.000000000000000e+00
	1.000000000000000e+00,0.000000000000000e+00
	0.000000000000000e+00,0.000000000000000e+00
	0.000000000000000e+00,0.000000000000000e+00
	0.000000000000000e+00,0.000000000000000e+00
	0.000000000000000e+00,0.000000000000000e+00
	0.000000000000000e+00,0.000000000000000e+00
	1.053255660504806e-03,2.275101668423566e-06
	0.000000000000000e+00,-2.443293248396463e-06
	-1.386635007814537e-12,-1.519480539921624e-06
	-1.053255659118171e-03,1.687672119894521e-06
	7.545347019163466e-04,-4.275742159910218e-06
	0.000000000000000e+00,9.854120866688012e-06
	0.000000000000000e+00,-1.302636546867577e-06
	-7.545347019163466e-04,-4.275742159910217e-06
	8.258080403909295e-04,-2.504112100067996e-06
	0.000000000000000e+00,8.090728218313832e-06
	-1.000000000000000e-12,-1.299305371206743e-06
	-8.258080393909295e-04,-4.287310747039093e-06
	0.000000000000000e+00,2.443293248396463e-06
	1.580342742307276e-03,1.116499482502363e-05
	-1.879063700895735e-03,-1.771583865335742e-05
	-7.545347019163466e-04,4.275742159910218e-06
17		1.039920165829058e+08,0.000000000000000e+00
	0.000000000000000e+00,0.000000000000000e+00
	0.000000000000000e+00,0.000000000000000e+00
	1.000000000000000e+00,0.000000000000000e+00
	0.000000000000000e+00,0.000000000000000e+00
	0.000000000000000e+00,0.000000000000000e+00
	0.000000000000000e+00,0.000000000000000e+00
	0.000000000000000e+00,0.000000000000000e+00
	0.000000000000000e+00,0.000000000000000e+00
	1.053255660504806e-03,2.280346319420709e-06
	0.000000000000000e+00,-2.448925621028142e-06
	-1.386635007814537e-12,-1.522983304320879e-06
	-1.053255659118171e-03,1.691562605928312e-06
	7.545347019163466e-04,-4.285598763548524e-06
	0.000000000000000e+00,9.876836961334128e-06
	0.000000000000000e+00,-1.305639434237080e-06
	-7.545347019163466e-04,-4.285598763548523e-06
	8.258080403909295e-04,-2.509884674632403e-06
	0.000000000000000e+00,8.109379273080627e-06
	-1.000000000000000e-12,-1.302300579423268e-06
	-8.258080393909295e-04,-4.297194019024956e-06
	0.000000000000000e+00,2.448925621028142e-06
	1.580342742307276e-03,1.119073279623383e-05
	-1.879063700895735e-03,-1.775667787920306e-05
	-7.545347019163466e-04,4.285598763548524e-06
18		1.042317429393303e+08,0.000000000000000e+00
	0.000000000000000e+00,0.000000000000000e+00
	0.000000000000000e+00,0.000000000000000e+00
	1.000000000000000e+00,0.000000000000000e+00
	0.000000000000000e+00,0.000000000000000e+00
	0.000000000000000e+00,0.000000000000000e+00
	0.000000000000000e+00,0.000000000000000e+00
	0.000000000000000e+00,0.000000000000000e+00
	0.000000000000000e+00,0.000000000000000e+00
	1.053255660504806e-03,2.285603060587036e-06
	0.000000000000000e+00,-2.454570977619680e-06
	-1.386635007814537e-12,-1.526494143426005e-06
	-1.053255659118171e-03,1.695462060458649e-06
	7.545347019163466e-04,-4.295478089004855e-06
	0.000000000000000e+00,9.899605421986601e-06
	0.000000000000000e+00,-1.308649243976891e-06
	-7.545347019163466e-04,-4.295478089004855e-06
	8.258080403909295e-04,-2.515670556355502e-06
	0.000000000000000e+00,8.128073322969062e-06
	-1.000000000000000e-12,-1.305302692307826e-06
	-8.258080393909295e-04,-4.307100074305735e-06
	0.000000000000000e+00,2.454570977619680e-06
	1.580342742307276e-03,1.121653009959531e-05
	-1.879063700895735e-03,-1.779761124918720e-05
	-7.545347019163466e-04,4.295478089004855e-06
19		1.044720219220799e+08,0.000000000000000e+00
	0.000000000000000e+00,0.000000000000000e+00
	0.000000000000000e+00,0.000000000000000e+00
	1.000000000000000e+00,0.000000000000000e+00
	0.000000000000000e+00,0.000000000000000e+00
	0.000000000000000e+00,0.000000000000000e+00
	0.000000000000000e+00,0.000000000000000e+00
	0.000000000000000e+00,0.000000000000000e+00
	0.000000000000000e+00,0.000000000000000e+00
	1.053255660504806e-03,2.290871919793265e-06
	0.000000000000000e+00,-2.460229348102196e-06
	-1.386635007814537e-12,-1.530013075851121e-06
	-1.053255659118171e-03,1.699370504160052e-06
	7.545347019163466e-04,-4.305380188658413e-06
	0.000000000000000e+00,9.922426369361547e-06
	0.000000000000000e+00,-1.311665992044721e-06
	-7.545347019163466e-04,-4.305380188658412e-06
	8.258080403909295e-04,-2.521469775913464e-06
	0.000000000000000e+00,8.146810467093131e-06
	-1.000000000000000e-12,-1.308311725777319e-06
	-8.258080393909295e-04,-4.317028965402349e-06
	0.000000000000000e+00,2.460229348102196e-06
	1.580342742307276e-03,1.124238687188280e-05
	-1.879063700895735e-03,-1.783863898033448e-05
	-7.545347019163466e-04,4.305380188658413e-06
20		1.047128548050899e+08,0.000000000000000e+00
	0.000000000000000e+00,0.000000000000000e+00
	0.000000000000000e+00,0.000000000000000e+00
	1.000000000000000e+00,0.000000000000000e+00
	0.000000000000000e+00,0.000000000000000e+00
	0.000000000000000e+00,0.000000000000000e+00
	0.000000000000000e+00,0.000000000000000e+00
	0.000000000000000e+00,0.000000000000000e+00
	0.000000000000000e+00,0.000000000000000e+00
	1.053255660504806e-03,2.296152924974363e-06
	0.000000000000000e+00,-2.465900762475807e-06
	-1.386635007814537e-12,-1.533540120253257e-06
	-1.053255659118171e-03,1.703287957754701e-06
	7.545347019163466e-04,-4.315305115009143e-06
	0.000000000000000e+00,9.945299924453353e-06
	0.000000000000000e+00,-1.314689694435068e-06
	-7.545347019163466e-04,-4.315305115009142e-06
	8.258080403909295e-04,-2.527282364053172e-06
	0.000000000000000e+00,8.165590804795305e-06
	-1.000000000000000e-12,-1.311327695785343e-06
	-8.258080393909295e-04,-4.326980744956790e-06
	0.000000000000000e+00,2.465900762475807e-06
	1.580342742307276e-03,1.126830325018634e-05
	-1.879063700895735e-03,-1.787976129016985e-05
	-7.545347019163466e-04,4.315305115009143e-06
21		1.049542428652321e+08,0.000000000000000e+00
	0.000000000000000e+00,0.000000000000000e+00
	0.000000000000000e+00,0.000000000000000e+00
	1.000000000000000e+00,0.000000000000000e+00
	0.000000000000000e+00,0.000000000000000e+00
	0.000000000000000e+00,0.000000000000000e+00
	0.000000000000000e+00,0.000000000000000e+00
	0.000000000000000e+00,0.000000000000000e+00
	0.000000000000000e+00,0.000000000000000e+00
	1.053255660504806e-03,2.301446104129695e-06
	0.000000000000000e+00,-2.471585250809788e-06
	-1.386635007814537e-12,-1.537075295332452e-06
	-1.053255659118171e-03,1.707214442012545e-06
	7.545347019163466e-04,-4.325252920678017e-06
	0.000000000000000e+00,9.968226208535336e-06
	0.000000000000000e+00,-1.317720367179302e-06
	-7.545347019163466e-04,-4.325252920678016e-06
	8.258080403909295e-04,-2.533108351592392e-06
	0.000000000000000e+00,8.184414435647067e-06
	-1.000000000000000e-12,-1.314350618322272e-06
	-8.258080393909295e-04,-4.336955465732402e-06
	0.000000000000000e+00,2.471585250809788e-06
	1.580342742307276e-03,1.129427937191199e-05
	-1.879063700895735e-03,-1.792097839671971e-05
	-7.545347019163466e-04,4.325252920678017e-06
22		1.051961873823222e+08,0.000000000000000e+00
	0.000000000000000e+00,0.000000000000000e+00
	0.000000000000000e+00,0.000000000000000e+00
	1.000000000000000e+00,0.000000000000000e+00
	0.000000000000000e+00,0.000000000000000e+00
	0.000000000000000e+00,0.000000000000000e+00
	0.000000000000000e+00,0.000000000000000e+00
	0.000000000000000e+00,0.000000000000000e+00
	0.000000000000000e+00,0.000000000000000e+00
	1.053255660504806e-03,2.306751485323168e-06
	0.000000000000000e+00,-2.477282843242730e-06
	-1.386635007814537e-12,-1.540618619831851e-06
	-1.053255659118171e-03,1.711149977751413e-06
	7.545347019163466e-04,-4.335223658407310e-06
	0.000000000000000e+00,9.991205343160368e-06
	0.000000000000000e+00,-1.320758026345748e-06
	-7.545347019163466e-04,-4.335223658407310e-06
	8.258080403909295e-04,-2.538947769419927e-06
	0.000000000000000e+00,8.203281459449430e-06
	-1.000000000000000e-12,-1.317380509415339e-06
	-8.258080393909295e-04,-4.346953180614163e-06
	0.000000000000000e+00,2.477282843242730e-06
	1.580342742307276e-03,1.132031537478256e-05
	-1.879063700895735e-03,-1.796229051851304e-05
	-7.545347019163466e-04,4.335223658407310e-06
23		1.054386896391258e+08,0.000000000000000e+00
	0.000000000000000e+00,0.000000000000000e+00
	0.000000000000000e+00,0.000000000000000e+00
	1.000000000000000e+00,0.000000000000000e+00
	0.000000000000000e+00,0.000000000000000e+00
	0.000000000000000e+00,0.000000000000000e+00
	0.000000000000000e+00,0.000000000000000e+00
	0.000000000000000e+00,0.000000000000000e+00
	0.000000000000000e+00,0.000000000000000e+00
	1.053255660504806e-03,2.312069096683387e-06
	0.000000000000000e+00,-2.482993569982700e-06
	-1.386635007814537e-12,-1.544170112537809e-06
	-1.053255659118171e-03,1.715094585837122e-06
	7.545347019163466e-04,-4.345217381060882e-06
	0.000000000000000e+00,1.001423745016153e-05
	0.000000000000000e+00,-1.323802688039771e-06
	-7.545347019163466e-04,-4.345217381060881e-06
	8.258080403909295e-04,-2.544800648495793e-06
	0.000000000000000e+00,8.222191976233481e-06
	-1.000000000000000e-12,-1.320417385128726e-06
	-8.258080393909295e-04,-4.356973942608962e-06
	0.000000000000000e+00,2.482993569982700e-06
	1.580342742307276e-03,1.134641139683834e-05
	-1.879063700895735e-03,-1.800369787458261e-05
	-7.545347019163466e-04,4.345217381060882e-06
24		1.056817509213657e+08,0.000000000000000e+00
	0.000000000000000e+00,0.000000000000000e+00
	0.000000000000000e+00,0.000000000000000e+00
	1.000000000000000e+00,0.000000000000000e+00
	0.000000000000000e+00,0.000000000000000e+00
	0.000000000000000e+00,0.000000000000000e+00
	0.000000000000000e+00,0.000000000000000e+00
	0.000000000000000e+00,0.000000000000000e+00
	0.000000000000000e+00,0.000000000000000e+00
	1.053255660504806e-03,2.317398966403796e-06
	0.000000000000000e+00,-2.488717461307404e-06
	-1.386635007814537e-12,-1.547729792279985e-06
	-1.053255659118171e-03,1.719048287183594e-06
	7.545347019163466e-04,-4.355234141624455e-06
	0.000000000000000e+00,1.003732265165278e-05
	0.000000000000000e+00,-1.326854368403866e-06
	-7.545347019163466e-04,-4.355234141624454e-06
	8.258080403909295e-04,-2.550667019851369e-06
	0.000000000000000e+00,8.241146086260896e-06
	-1.000000000000000e-12,-1.323461261563645e-06
	-8.258080393909295e-04,-4.367017804845881e-06
	0.000000000000000e+00,2.488717461307404e-06
	1.580342742307276e-03,1.137256757643785e-05
	-1.879063700895735e-03,-1.804520068446610e-05
	-7.545347019163466e-04,4.355234141624455e-06
25		1.059253725177288e+08,0.000000000000000e+00
	0.000000000000000e+00,0.000000000000000e+00
	0.000000000000000e+00,0.000000000000000e+00
	1.000000000000000e+00,0.000000000000000e+00
	0.000000000000000e+00,0.000000000000000e+00
	0.000000000000000e+00,0.000000000000000e+00
	0.000000000000000e+00,0.000000000000000e+00
	0.000000000000000e+00,0.000000000000000e+00
	0.000000000000000e+00,0.000000000000000e+00
	1.053255660504806e-03,2.322741122742835e-06
	0.000000000000000e+00,-2.494454547564344e-06