Title: * GA CMOS Amp | W=4.197562651105274e-05 L=4.230947888053579e-07 Vbias=0.6690611873320931
Date: Sat Sep  6 22:36:00 2025
Plotname: AC Analysis
Flags: complex forward log
No. Variables: 13
No. Points:          901
Offset:    0.0000000000000000e+00
Command: Linear Technology Corporation LTspice
Variables:
	0	frequency	frequency
	1	V(out)	voltage
	2	V(g)	voltage
	3	V(vdd)	voltage
	4	V(m1#dbody)	voltage
	5	V(m1#sbody)	voltage
	6	Id(M1)	device_current
	7	Ig(M1)	device_current
	8	Ib(M1)	device_current
	9	Is(M1)	device_current
	10	I(Rload)	device_current
	11	I(Vg)	device_current
	12	I(Vdd)	device_current
Values:
0		1.000000000000000e+00,0.000000000000000e+00
	-2.274365632447255e-02,2.865294985809620e-10
	1.000000000000000e+00,0.000000000000000e+00
	0.000000000000000e+00,0.000000000000000e+00
	1.515674477514496e-08,-7.138027118347873e-15
	1.515694364750533e-08,1.519591660364245e-14
	2.274365632447197e-06,-2.865294985809609e-14
	1.453512103690369e-06,4.513666804501846e-12
	-8.083690026628496e-09,-6.615568871713476e-15
	-3.719794046110937e-06,-4.478398285772037e-12
	-2.274365632447255e-06,2.865294985809621e-14
	-1.453512103691268e-06,-4.513666804501846e-12
	-2.274365632447255e-06,2.865294985809621e-14
1		1.023292992280754e+00,0.000000000000000e+00
	-2.274365632447255e-02,2.932036279796168e-10
	1.000000000000000e+00,0.000000000000000e+00
	0.000000000000000e+00,0.000000000000000e+00
	1.515674477514490e-08,-7.304293128915332e-15
	1.515694364750528e-08,1.554987497179010e-14
	2.274365632447197e-06,-2.932036279796105e-14
	1.453512103690369e-06,4.618803610537004e-12
	-8.083690026628469e-09,-6.769665266375111e-15
	-3.719794046110937e-06,-4.582713582472668e-12
	-2.274365632447255e-06,2.932036279796168e-14
	-1.453512103691268e-06,-4.618803610537002e-12
	-2.274365632447255e-06,2.932036279796168e-14
2		1.047128548050899e+00,0.000000000000000e+00
	-2.274365632447255e-02,3.000332178228352e-10
	1.000000000000000e+00,0.000000000000000e+00
	0.000000000000000e+00,0.000000000000000e+00
	1.515674477514484e-08,-7.474431972383525e-15
	1.515694364750523e-08,1.591207808947470e-14
	2.274365632447197e-06,-3.000332178228274e-14
	1.453512103690369e-06,4.726389367383561e-12
	-8.083690026628445e-09,-6.927351027168074e-15
	-3.719794046110937e-06,-4.689458694574110e-12
	-2.274365632447255e-06,3.000332178228352e-14
	-1.453512103691268e-06,-4.726389367383560e-12
	-2.274365632447255e-06,3.000332178228352e-14
3		1.071519305237606e+00,0.000000000000000e+00
	-2.274365632447255e-02,3.070218892495522e-10
	1.000000000000000e+00,0.000000000000000e+00
	0.000000000000000e+00,0.000000000000000e+00
	1.515674477514477e-08,-7.648533858619272e-15
	1.515694364750518e-08,1.628271800158359e-14
	2.274365632447197e-06,-3.070218892495503e-14
	1.453512103690369e-06,4.836481118433864e-12
	-8.083690026628418e-09,-7.088709761169974e-15
	-3.719794046110937e-06,-4.798690219747739e-12
	-2.274365632447255e-06,3.070218892495522e-14
	-1.453512103691268e-06,-4.836481118433864e-12
	-2.274365632447255e-06,3.070218892495522e-14
4		1.096478196143185e+00,0.000000000000000e+00
	-2.274365632447255e-02,3.141733477458645e-10
	1.000000000000000e+00,0.000000000000000e+00
	0.000000000000000e+00,0.000000000000000e+00
	1.515674477514471e-08,-7.826691098747193e-15
	1.515694364750513e-08,1.666199122630415e-14
	2.274365632447197e-06,-3.141733477458605e-14
	1.453512103690369e-06,4.949137235791557e-12
	-8.083690026628388e-09,-7.253827022917400e-15
	-3.719794046110937e-06,-4.910466073994053e-12
	-2.274365632447255e-06,3.141733477458645e-14
	-1.453512103691268e-06,-4.949137235791557e-12
	-2.274365632447255e-06,3.141733477458645e-14
5		1.122018454301963e+00,0.000000000000000e+00
	-2.274365632447255e-02,3.214913851097276e-10
	1.000000000000000e+00,0.000000000000000e+00
	0.000000000000000e+00,0.000000000000000e+00
	1.515674477514464e-08,-8.008998154094173e-15
	1.515694364750508e-08,1.705009885932044e-14
	2.274365632447197e-06,-3.214913851097296e-14
	1.453512103690369e-06,5.064417451221244e-12
	-8.083690026628359e-09,-7.422790359768137e-15
	-3.719794046110937e-06,-5.024845522350502e-12
	-2.274365632447255e-06,3.214913851097277e-14
	-1.453512103691268e-06,-5.064417451221243e-12
	-2.274365632447255e-06,3.214913851097277e-14
6		1.148153621496882e+00,0.000000000000000e+00
	-2.274365632447255e-02,3.289798814614175e-10
	1.000000000000000e+00,0.000000000000000e+00
	0.000000000000000e+00,0.000000000000000e+00
	1.515674477514456e-08,-8.195551686274052e-15
	1.515694364750502e-08,1.744724668043670e-14
	2.274365632447197e-06,-3.289798814614079e-14
	1.453512103690369e-06,5.182382887819055e-12
	-8.083690026628326e-09,-7.595689358319881e-15
	-3.719794046110937e-06,-5.141889210314594e-12
	-2.274365632447255e-06,3.289798814614175e-14
	-1.453512103691268e-06,-5.182382887819055e-12
	-2.274365632447255e-06,3.289798814614175e-14
7		1.174897554939529e+00,0.000000000000000e+00
	-2.274365632447255e-02,3.366428073008217e-10
	1.000000000000000e+00,0.000000000000000e+00
	0.000000000000000e+00,0.000000000000000e+00
	1.515674477514449e-08,-8.386450608438973e-15
	1.515694364750496e-08,1.785364526268449e-14
	2.274365632447197e-06,-3.366428073008137e-14
	1.453512103690369e-06,5.303096092420936e-12
	-8.083690026628292e-09,-7.772615691910216e-15
	-3.719794046110937e-06,-5.261659195998945e-12
	-2.274365632447255e-06,3.366428073008217e-14
	-1.453512103691268e-06,-5.303096092420938e-12
	-2.274365632447255e-06,3.366428073008217e-14
8		1.202264434617413e+00,0.000000000000000e+00
	-2.274365632447255e-02,3.444842256126512e-10
	1.000000000000000e+00,0.000000000000000e+00
	0.000000000000000e+00,0.000000000000000e+00
	1.515674477514441e-08,-8.581796137724229e-15
	1.515694364750490e-08,1.826951008397157e-14
	2.274365632447197e-06,-3.444842256126478e-14
	1.453512103690369e-06,5.426621068765795e-12
	-8.083690026628259e-09,-7.953663169223173e-15
	-3.719794046110937e-06,-5.384218983035308e-12
	-2.274365632447255e-06,3.444842256126512e-14
	-1.453512103691268e-06,-5.426621068765795e-12
	-2.274365632447255e-06,3.444842256126512e-14
9		1.230268770812381e+00,0.000000000000000e+00
	-2.274365632447255e-02,3.525082940206881e-10
	1.000000000000000e+00,0.000000000000000e+00
	0.000000000000000e+00,0.000000000000000e+00
	1.515674477514432e-08,-8.781691848915245e-15
	1.515694364750483e-08,1.869506164133068e-14
	2.274365632447197e-06,-3.525082940206816e-14
	1.453512103690369e-06,5.553023311431134e-12
	-8.083690026628223e-09,-8.138927784027606e-15
	-3.719794046110937e-06,-5.509633554245038e-12
	-2.274365632447255e-06,3.525082940206881e-14
	-1.453512103691268e-06,-5.553023311431134e-12
	-2.274365632447255e-06,3.525082940206881e-14
10		1.258925411794167e+00,0.000000000000000e+00
	-2.274365632447255e-02,3.607192669922138e-10
	1.000000000000000e+00,0.000000000000000e+00
	0.000000000000000e+00,0.000000000000000e+00
	1.515674477514423e-08,-8.986243729363993e-15
	1.515694364750476e-08,1.913052556783041e-14
	2.274365632447197e-06,-3.607192669922100e-14
	1.453512103690369e-06,5.682369840559148e-12
	-8.083690026628185e-09,-8.328507766074576e-15
	-3.719794046110937e-06,-5.637969406093853e-12
	-2.274365632447255e-06,3.607192669922139e-14
	-1.453512103691268e-06,-5.682369840559147e-12
	-2.274365632447255e-06,3.607192669922139e-14
11		1.288249551693134e+00,0.000000000000000e+00
	-2.274365632447255e-02,3.691214980937829e-10
	1.000000000000000e+00,0.000000000000000e+00
	0.000000000000000e+00,0.000000000000000e+00
	1.515674477514414e-08,-9.195560235185045e-15
	1.515694364750469e-08,1.957613275220866e-14
	2.274365632447197e-06,-3.691214980937740e-14
	1.453512103690368e-06,5.814729237391683e-12
	-8.083690026628147e-09,-8.522503633179950e-15
	-3.719794046110937e-06,-5.769294583949125e-12
	-2.274365632447255e-06,3.691214980937829e-14
	-1.453512103691268e-06,-5.814729237391685e-12
	-2.274365632447255e-06,3.691214980937829e-14
12		1.318256738556407e+00,0.000000000000000e+00
	-2.274365632447255e-02,3.777194422995417e-10
	1.000000000000000e+00,0.000000000000000e+00
	0.000000000000000e+00,0.000000000000000e+00
	1.515674477514404e-08,-9.409752348760428e-15
	1.515694364750462e-08,2.003211946129287e-14
	2.274365632447197e-06,-3.777194422995364e-14
	1.453512103690368e-06,5.950171680632922e-12
	-8.083690026628104e-09,-8.721018244520308e-15
	-3.719794046110937e-06,-5.903678718158448e-12
	-2.274365632447255e-06,3.777194422995417e-14
	-1.453512103691268e-06,-5.950171680632922e-12
	-2.274365632447255e-06,3.777194422995417e-14
13		1.348962882591653e+00,0.000000000000000e+00
	-2.274365632447255e-02,3.865176583533157e-10
	1.000000000000000e+00,0.000000000000000e+00
	0.000000000000000e+00,0.000000000000000e+00
	1.515674477514394e-08,-9.628933637583923e-15
	1.515694364750454e-08,2.049872746527189e-14
	2.274365632447197e-06,-3.865176583533142e-14
	1.453512103690368e-06,6.088768983659068e-12
	-8.083690026628061e-09,-8.924156855170230e-15
	-3.719794046110937e-06,-6.041193060968567e-12
	-2.274365632447255e-06,3.865176583533157e-14
	-1.453512103691268e-06,-6.088768983659068e-12
	-2.274365632447255e-06,3.865176583533157e-14
14		1.380384264602885e+00,0.000000000000000e+00
	-2.274365632447255e-02,3.955208111857147e-10
	1.000000000000000e+00,0.000000000000000e+00
	0.000000000000000e+00,0.000000000000000e+00
	1.515674477514383e-08,-9.853220314476053e-15
	1.515694364750446e-08,2.097620416588577e-14
	2.274365632447197e-06,-3.955208111857073e-14
	1.453512103690368e-06,6.230594632594733e-12
	-8.083690026628015e-09,-9.132027171909956e-15
	-3.719794046110937e-06,-6.181910524304252e-12
	-2.274365632447255e-06,3.955208111857147e-14
	-1.453512103691268e-06,-6.230594632594733e-12
	-2.274365632447255e-06,3.955208111857147e-14
15		1.412537544622754e+00,0.000000000000000e+00
	-2.274365632447255e-02,4.047336743875411e-10
	1.000000000000000e+00,0.000000000000000e+00
	0.000000000000000e+00,0.000000000000000e+00
	1.515674477514372e-08,-1.008273129920173e-14
	1.515694364750437e-08,2.146480272760125e-14
	2.274365632447197e-06,-4.047336743875339e-14
	1.453512103690368e-06,6.375723825276270e-12
	-8.083690026627967e-09,-9.344739410332880e-15
	-3.719794046110937e-06,-6.325905718427184e-12
	-2.274365632447255e-06,4.047336743875411e-14
	-1.453512103691268e-06,-6.375723825276269e-12
	-2.274365632447255e-06,4.047336743875411e-14
16		1.445439770745927e+00,0.000000000000000e+00
	-2.274365632447255e-02,4.141611327408113e-10
	1.000000000000000e+00,0.000000000000000e+00
	0.000000000000000e+00,0.000000000000000e+00
	1.515674477514361e-08,-1.031758828152297e-14
	1.515694364750428e-08,2.196478221184315e-14
	2.274365632447197e-06,-4.141611327408052e-14
	1.453512103690368e-06,6.524233511122649e-12
	-8.083690026627919e-09,-9.562406353283409e-15
	-3.719794046110937e-06,-6.473254991495286e-12
	-2.274365632447255e-06,4.141611327408113e-14
	-1.453512103691268e-06,-6.524233511122649e-12
	-2.274365632447255e-06,4.141611327408113e-14
17		1.479108388168207e+00,0.000000000000000e+00
	-2.274365632447255e-02,4.238081848087313e-10
	1.000000000000000e+00,0.000000000000000e+00
	0.000000000000000e+00,0.000000000000000e+00
	1.515674477514348e-08,-1.055791578572048e-14
	1.515694364750419e-08,2.247640771435206e-14
	2.274365632447197e-06,-4.238081848087260e-14
	1.453512103690368e-06,6.676202431935065e-12
	-8.083690026627864e-09,-9.785143410655877e-15
	-3.719794046110937e-06,-6.624036470043537e-12
	-2.274365632447255e-06,4.238081848087313e-14
	-1.453512103691268e-06,-6.676202431935066e-12
	-2.274365632447255e-06,4.238081848087313e-14
18		1.513561248436208e+00,0.000000000000000e+00
	-2.274365632447255e-02,4.336799455860015e-10
	1.000000000000000e+00,0.000000000000000e+00
	0.000000000000000e+00,0.000000000000000e+00
	1.515674477514335e-08,-1.080384123661814e-14
	1.515694364750409e-08,2.299995050574153e-14
	2.274365632447197e-06,-4.336799455860005e-14
	1.453512103690368e-06,6.831711163646882e-12
	-8.083690026627809e-09,-1.001306868058635e-14
	-3.719794046110937e-06,-6.778330100407696e-12
	-2.274365632447255e-06,4.336799455860015e-14
	-1.453512103691268e-06,-6.831711163646881e-12
	-2.274365632447255e-06,4.336799455860015e-14
19		1.548816618912481e+00,0.000000000000000e+00
	-2.274365632447255e-02,4.437816492108542e-10
	1.000000000000000e+00,0.000000000000000e+00
	0.000000000000000e+00,0.000000000000000e+00
	1.515674477514322e-08,-1.105549502714512e-14
	1.515694364750398e-08,2.353568817532954e-14
	2.274365632447197e-06,-4.437816492108375e-14
	1.453512103690368e-06,6.990842159046050e-12
	-8.083690026627753e-09,-1.024630301206993e-14
	-3.719794046110937e-06,-6.936217691112896e-12
	-2.274365632447255e-06,4.437816492108543e-14
	-1.453512103691268e-06,-6.990842159046051e-12
	-2.274365632447255e-06,4.437816492108543e-14
20		1.584893192461113e+00,0.000000000000000e+00
	-2.274365632447255e-02,4.541186517402630e-10
	1.000000000000000e+00,0.000000000000000e+00
	0.000000000000000e+00,0.000000000000000e+00
	1.515674477514308e-08,-1.131301058747235e-14
	1.515694364750387e-08,2.408390477831971e-14
	2.274365632447197e-06,-4.541186517402548e-14
	1.453512103690368e-06,7.153679791492681e-12
	-8.083690026627694e-09,-1.048497006903633e-14
	-3.719794046110937e-06,-7.097782956249619e-12
	-2.274365632447255e-06,4.541186517402630e-14
	-1.453512103691268e-06,-7.153679791492681e-12
	-2.274365632447255e-06,4.541186517402630e-14
21		1.621810097358929e+00,0.000000000000000e+00
	-2.274365632447255e-02,4.646964339897953e-10
	1.000000000000000e+00,0.000000000000000e+00
	0.000000000000000e+00,0.000000000000000e+00
	1.515674477514293e-08,-1.157652445575841e-14
	1.515694364750376e-08,2.464489098641155e-14
	2.274365632447197e-06,-4.646964339897886e-14
	1.453512103690368e-06,7.320310399654906e-12
	-8.083690026627631e-09,-1.072919639591835e-14
	-3.719794046110937e-06,-7.263111559860008e-12
	-2.274365632447255e-06,4.646964339897953e-14
	-1.453512103691268e-06,-7.320310399654906e-12
	-2.274365632447255e-06,4.646964339897953e-14
22		1.659586907437560e+00,0.000000000000000e+00
	-2.274365632447255e-02,4.755206044396136e-10
	1.000000000000000e+00,0.000000000000000e+00
	0.000000000000000e+00,0.000000000000000e+00
	1.515674477514278e-08,-1.184617635054437e-14
	1.515694364750364e-08,2.521894424191805e-14
	2.274365632447197e-06,-4.755206044396111e-14
	1.453512103690368e-06,7.490822333286793e-12
	-8.083690026627565e-09,-1.097911148474716e-14
	-3.719794046110937e-06,-7.432291161358085e-12
	-2.274365632447255e-06,4.755206044396136e-14
	-1.453512103691268e-06,-7.490822333286791e-12
	-2.274365632447255e-06,4.755206044396136e-14
23		1.698243652461743e+00,0.000000000000000e+00
	-2.274365632447255e-02,4.865969022081651e-10
	1.000000000000000e+00,0.000000000000000e+00
	0.000000000000000e+00,0.000000000000000e+00
	1.515674477514262e-08,-1.212210924483405e-14
	1.515694364750352e-08,2.580636891547382e-14
	2.274365632447197e-06,-4.865969022081568e-14
	1.453512103690368e-06,7.665306000072542e-12
	-8.083690026627495e-09,-1.123484784381092e-14
	-3.719794046110937e-06,-7.605411462007915e-12
	-2.274365632447255e-06,4.865969022081651e-14
	-1.453512103691268e-06,-7.665306000072541e-12
	-2.274365632447255e-06,4.865969022081651e-14
24		1.737800828749374e+00,0.000000000000000e+00
	-2.274365632447255e-02,4.979312000951386e-10
	1.000000000000000e+00,0.000000000000000e+00
	0.000000000000000e+00,0.000000000000000e+00
	1.515674477514245e-08,-1.240446944190042e-14
	1.515694364750339e-08,2.640747646741625e-14
	2.274365632447197e-06,-4.979312000951286e-14
	1.453512103690368e-06,7.843853913561850e-12
	-8.083690026627424e-09,-1.149654106791226e-14
	-3.719794046110937e-06,-7.782564252484424e-12
	-2.274365632447255e-06,4.979312000951387e-14
	-1.453512103691268e-06,-7.843853913561850e-12
	-2.274365632447255e-06,4.979312000951387e-14
25		1.778279410038922e+00,0.000000000000000e+00
	-2.274365632447255e-02,5.095295076953014e-10
	1.000000000000000e+00,0.000000000000000e+00
	0.000000000000000e+00,0.000000000000000e+00
	1.515674477514228e-08,-1.269340665285747e-14
	1.515694364750325e-08,2.702258561292595e-14
	2.274365632447197e-06,-5.095295076952837e-14
	1.453512103690368e-06,8.026560742221808e-12
	-8.083690026627349e-09,-1.176432991026250e-14
	-3.719794046110937e-06,-7.963843461542018e-12
	-2.274365632447255e-06,5.095295076953015e-14
	-1.453512103691268e-06,-8.026560742221808e-12
	-2.274365632447255e-06,5.095295076953015e-14
26		1.819700858609982e+00,0.000000000000000e+00
	-2.274365632447255e-02,5.213979745848645e-10
	1.000000000000000e+00,0.000000000000000e+00
	0.000000000000000e+00,0.000000000000000e+00
	1.515674477514209e-08,-1.298907407603894e-14
	1.515694364750311e-08,2.765202249101386e-14
	2.274365632447197e-06,-5.213979745848525e-14
	1.453512103690368e-06,8.213523359631384e-12
	-8.083690026627268e-09,-1.203835635605049e-14
	-3.719794046110937e-06,-8.149345205816849e-12
	-2.274365632447255e-06,5.213979745848645e-14
	-1.453512103691268e-06,-8.213523359631384e-12
	-2.274365632447255e-06,5.213979745848645e-14
27		1.862087136662866e+00,0.000000000000000e+00
	-2.274365632447255e-02,5.335428935820704e-10
	1.000000000000000e+00,0.000000000000000e+00
	0.000000000000000e+00,0.000000000000000e+00
	1.515674477514190e-08,-1.329162847822626e-14
	1.515694364750296e-08,2.829612083744429e-14
	2.274365632447197e-06,-5.335428935820674e-14
	1.453512103690368e-06,8.404840895845073e-12
	-8.083690026627186e-09,-1.231876569772495e-14
	-3.719794046110937e-06,-8.339167840789140e-12
	-2.274365632447255e-06,5.335428935820704e-14
	-1.453512103691268e-06,-8.404840895845071e-12
	-2.274365632447255e-06,5.335428935820704e-14
28		1.905460717963246e+00,0.000000000000000e+00
	-2.274365632447255e-02,5.459707040837289e-10
	1.000000000000000e+00,0.000000000000000e+00
	0.000000000000000e+00,0.000000000000000e+00
	1.515674477514169e-08,-1.360123027776821e-14
	1.515694364750280e-08,2.895522216168618e-14
	2.274365632447197e-06,-5.459707040837143e-14
	1.453512103690367e-06,8.600614789952957e-12
	-8.083690026627098e-09,-1.260570661203048e-14
	-3.719794046110937e-06,-8.533412012932556e-12
	-2.274365632447255e-06,5.459707040837289e-14
	-1.453512103691268e-06,-8.600614789952958e-12
	-2.274365632447255e-06,5.459707040837289e-14
29		1.949844599758044e+00,0.000000000000000e+00
	-2.274365632447255e-02,5.586879954794691e-10
	1.000000000000000e+00,0.000000000000000e+00
	0.000000000000000e+00,0.000000000000000e+00
	1.515674477514148e-08,-1.391804362963705e-14
	1.515694364750264e-08,2.962967592798584e-14
	2.274365632447197e-06,-5.586879954794737e-14
	1.453512103690367e-06,8.800948843865073e-12
	-8.083690026627009e-09,-1.289933123883794e-14
	-3.719794046110937e-06,-8.732180713078287e-12
	-2.274365632447255e-06,5.586879954794691e-14
	-1.453512103691268e-06,-8.800948843865071e-12
	-2.274365632447255e-06,5.586879954794691e-14
30		1.995262314968878e+00,0.000000000000000e+00
	-2.274365632447255e-02,5.717015106455223e-10
	1.000000000000000e+00,0.000000000000000e+00
	0.000000000000000e+00,0.000000000000000e+00
	1.515674477514126e-08,-1.424223651246536e-14
	1.515694364750246e-08,3.031983974065769e-14
	2.274365632447197e-06,-5.717015106455069e-14
	1.453512103690367e-06,9.005949277348531e-12
	-8.083690026626913e-09,-1.319979526181110e-14
	-3.719794046110937e-06,-8.935579331022169e-12
	-2.274365632447255e-06,5.717015106455224e-14
	-1.453512103691268e-06,-9.005949277348534e-12
	-2.274365632447255e-06,5.717015106455224e-14
31		2.041737944669527e+00,0.000000000000000e+00
	-2.274365632447255e-02,5.850181495198837e-10
	1.000000000000000e+00,0.000000000000000e+00
	0.000000000000000e+00,0.000000000000000e+00
	1.515674477514102e-08,-1.457398081761091e-14
	1.515694364750228e-08,3.102607953369050e-14
	2.274365632447197e-06,-5.850181495198875e-14
	1.453512103690367e-06,9.215724784346672e-12
	-8.083690026626813e-09,-1.350725799095199e-14
	-3.719794046110937e-06,-9.143715711403733e-12
	-2.274365632447255e-06,5.850181495198837e-14
	-1.453512103691268e-06,-9.215724784346674e-12
	-2.274365632447255e-06,5.850181495198837e-14
32		2.089296130854037e+00,0.000000000000000e+00
	-2.274365632447255e-02,5.986449727607516e-10
	1.000000000000000e+00,0.000000000000000e+00
	0.000000000000000e+00,0.000000000000000e+00
	1.515674477514078e-08,-1.491345244029541e-14
	1.515694364750210e-08,3.174876976477080e-14
	2.274365632447197e-06,-5.986449727607433e-14
	1.453512103690367e-06,9.430386590610016e-12
	-8.083690026626711e-09,-1.382188244706937e-14
	-3.719794046110937e-06,-9.356700210886872e-12
	-2.274365632447255e-06,5.986449727607517e-14
	-1.453512103691268e-06,-9.430386590610014e-12
	-2.274365632447255e-06,5.986449727607517e-14
33		2.137962089502230e+00,0.000000000000000e+00
	-2.274365632447255e-02,6.125892054901801e-10
	1.000000000000000e+00,0.000000000000000e+00
	0.000000000000000e+00,0.000000000000000e+00
	1.515674477514053e-08,-1.526083137286660e-14
	1.515694364750190e-08,3.248829361382503e-14
	2.274365632447197e-06,-6.125892054901531e-14
	1.453512103690367e-06,9.650048512669621e-12
	-8.083690026626602e-09,-1.414383544821445e-14
	-3.719794046110937e-06,-9.574645756672392e-12
	-2.274365632447255e-06,6.125892054901801e-14
	-1.453512103691268e-06,-9.650048512669621e-12
	-2.274365632447255e-06,6.125892054901801e-14
34		2.187761623949550e+00,0.000000000000000e+00
	-2.274365632447255e-02,6.268582411249362e-10
	1.000000000000000e+00,0.000000000000000e+00
	0.000000000000000e+00,0.000000000000000e+00
	1.515674477514026e-08,-1.561630180023265e-14
	1.515694364750169e-08,3.324504318618676e-14
	2.274365632447197e-06,-6.268582411249217e-14
	1.453512103690367e-06,9.874827018184139e-12
	-8.083690026626486e-09,-1.447328769812998e-14
	-3.719794046110937e-06,-9.797667906373516e-12
	-2.274365632447255e-06,6.268582411249363e-14
	-1.453512103691268e-06,-9.874827018184136e-12
	-2.274365632447255e-06,6.268582411249363e-14
35		2.238721138568337e+00,0.000000000000000e+00
	-2.274365632447255e-02,6.414596452965863e-10
	1.000000000000000e+00,0.000000000000000e+00
	0.000000000000000e+00,0.000000000000000e+00
	1.515674477513998e-08,-1.598005219751936e-14
	1.515694364750148e-08,3.401941972049597e-14
	2.274365632447197e-06,-6.414596452965846e-14
	1.453512103690367e-06,1.010484128769248e-11
	-8.083690026626367e-09,-1.481041387675967e-14
	-3.719794046110937e-06,-1.002588490928606e-11
	-2.274365632447255e-06,6.414596452965863e-14
	-1.453512103691268e-06,-1.010484128769248e-11
	-2.274365632447255e-06,6.414596452965863e-14
36		2.290867652767770e+00,0.000000000000000e+00
	-2.274365632447255e-02,6.564011598628949e-10
	1.000000000000000e+00,0.000000000000000e+00
	0.000000000000000e+00,0.000000000000000e+00
	1.515674477513968e-08,-1.635227543000225e-14
	1.515694364750125e-08,3.481183380144120e-14
	2.274365632447197e-06,-6.564011598628858e-14
	1.453512103690366e-06,1.034021327780495e-11
	-8.083690026626241e-09,-1.515539273286580e-14
	-3.719794046110937e-06,-1.025941776908579e-11
	-2.274365632447255e-06,6.564011598628950e-14
	-1.453512103691268e-06,-1.034021327780495e-11
	-2.274365632447255e-06,6.564011598628950e-14
37		2.344228815319919e+00,0.000000000000000e+00
	-2.274365632447255e-02,6.716907070126595e-10
	1.000000000000000e+00,0.000000000000000e+00
	0.000000000000000e+00,0.000000000000000e+00
	1.515674477513938e-08,-1.673316885536604e-14
	1.515694364750101e-08,3.562270557745708e-14
	2.274365632447197e-06,-6.716907070126381e-14
	1.453512103690366e-06,1.058106778586621e-11
	-8.083690026626110e-09,-1.550840717880424e-14
	-3.719794046110937e-06,-1.049839030798614e-11
	-2.274365632447255e-06,6.716907070126595e-14
	-1.453512103691268e-06,-1.058106778586621e-11
	-2.274365632447255e-06,6.716907070126595e-14
38		2.398832919019488e+00,0.000000000000000e+00
	-2.274365632447255e-02,6.873363934661595e-10
	1.000000000000000e+00,0.000000000000000e+00
	0.000000000000000e+00,0.000000000000000e+00
	1.515674477513906e-08,-1.712293442834664e-14
	1.515694364750076e-08,3.645246498349235e-14
	2.274365632447197e-06,-6.873363934661522e-14
	1.453512103690366e-06,1.082753251612453e-11
	-8.083690026625971e-09,-1.586964438750692e-14
	-3.719794046110937e-06,-1.074292923239040e-11
	-2.274365632447255e-06,6.873363934661595e-14
	-1.453512103691268e-06,-1.082753251612453e-11
	-2.274365632447255e-06,6.873363934661595e-14
39		2.454708915685027e+00,0.000000000000000e+00
	-2.274365632447255e-02,7.033465147734481e-10
	1.000000000000000e+00,0.000000000000000e+00
	0.000000000000000e+00,0.000000000000000e+00
	1.515674477513872e-08,-1.752177880780997e-14
	1.515694364750050e-08,3.730155196896732e-14
	2.274365632447197e-06,-7.033465147734419e-14
	1.453512103690366e-06,1.107973814744223e-11
	-8.083690026625829e-09,-1.623929589172344e-14
	-3.719794046110937e-06,-1.099316420007316e-11
	-2.274365632447255e-06,7.033465147734481e-14
	-1.453512103691268e-06,-1.107973814744223e-11
	-2.274365632447255e-06,7.033465147734481e-14
40		2.511886431509577e+00,0.000000000000000e+00
	-2.274365632447255e-02,7.197295597127614e-10
	1.000000000000000e+00,0.000000000000000e+00
	0.000000000000000e+00,0.000000000000000e+00
	1.515674477513836e-08,-1.792991346632538e-14
	1.515694364750023e-08,3.817041673104060e-14
	2.274365632447197e-06,-7.197295597127571e-14
	1.453512103690366e-06,1.133781840258338e-11
	-8.083690026625677e-09,-1.661755768557422e-14
	-3.719794046110937e-06,-1.124922788892653e-11
	-2.274365632447255e-06,7.197295597127614e-14
	-1.453512103691268e-06,-1.133781840258338e-11
	-2.274365632447255e-06,7.197295597127614e-14
41		2.570395782768860e+00,0.000000000000000e+00
	-2.274365632447255e-02,7.364942147913812e-10
	1.000000000000000e+00,0.000000000000000e+00
	0.000000000000000e+00,0.000000000000000e+00
	1.515674477513800e-08,-1.834755480229109e-14
	1.515694364749995e-08,3.905951995330989e-14
	2.274365632447197e-06,-7.364942147913669e-14
	1.453512103690366e-06,1.160191011911534e-11
	-8.083690026625521e-09,-1.700463032846929e-14
	-3.719794046110937e-06,-1.151125606730774e-11
	-2.274365632447255e-06,7.364942147913813e-14
	-1.453512103691268e-06,-1.160191011911534e-11
	-2.274365632447255e-06,7.364942147913813e-14
42		2.630267991895378e+00,0.000000000000000e+00
	-2.274365632447255e-02,7.536493688513368e-10
	1.000000000000000e+00,0.000000000000000e+00
	0.000000000000000e+00,0.000000000000000e+00
	1.515674477513761e-08,-1.877492425467155e-14
	1.515694364749965e-08,3.996933305007230e-14
	2.274365632447197e-06,-7.536493688513239e-14
	1.453512103690366e-06,1.187215332196190e-11
	-8.083690026625354e-09,-1.740071905144741e-14
	-3.719794046110937e-06,-1.177938766602532e-11
	-2.274365632447255e-06,7.536493688513369e-14
	-1.453512103691268e-06,-1.187215332196190e-11
	-2.274365632447255e-06,7.536493688513369e-14
43		2.691534803926912e+00,0.000000000000000e+00
	-2.274365632447255e-02,7.712041177823862e-10
	1.000000000000000e+00,0.000000000000000e+00
	0.000000000000000e+00,0.000000000000000e+00
	1.515674477513721e-08,-1.921224842040745e-14
	1.515694364749933e-08,4.090033841627445e-14
	2.274365632447197e-06,-7.712041177823909e-14
	1.453512103690365e-06,1.214869129764629e-11
	-8.083690026625181e-09,-1.780603386599230e-14
	-3.719794046110937e-06,-1.205376485200206e-11
	-2.274365632447255e-06,7.712041177823862e-14
	-1.453512103691268e-06,-1.214869129764629e-11
	-2.274365632447255e-06,7.712041177823862e-14
44		2.754228703338163e+00,0.000000000000000e+00
	-2.274365632447255e-02,7.891677693447772e-10
	1.000000000000000e+00,0.000000000000000e+00
	0.000000000000000e+00,0.000000000000000e+00
	1.515674477513678e-08,-1.965975917455988e-14
	1.515694364749900e-08,4.185302968328501e-14
	2.274365632447197e-06,-7.891677693447615e-14
	1.453512103690365e-06,1.243167067026363e-11
	-8.083690026625000e-09,-1.822078967538373e-14
	-3.719794046110937e-06,-1.233453310365377e-11
	-2.274365632447255e-06,7.891677693447772e-14
	-1.453512103691268e-06,-1.243167067026363e-11
	-2.274365632447255e-06,7.891677693447772e-14
45		2.818382931264450e+00,0.000000000000000e+00
	-2.274365632447255e-02,8.075498481043451e-10
	1.000000000000000e+00,0.000000000000000e+00
	0.000000000000000e+00,0.000000000000000e+00
	1.515674477513634e-08,-2.011769379325439e-14
	1.515694364749866e-08,4.282791198062394e-14
	2.274365632447197e-06,-8.075498481043323e-14
	1.453512103690365e-06,1.272124147922296e-11
	-8.083690026624810e-09,-1.864520638864169e-14
	-3.719794046110937e-06,-1.262184128802388e-11
	-2.274365632447255e-06,8.075498481043452e-14
	-1.453512103691268e-06,-1.272124147922296e-11
	-2.274365632447255e-06,8.075498481043452e-14
46		2.884031503126602e+00,0.000000000000000e+00
	-2.274365632447255e-02,8.263601004825637e-10
	1.000000000000000e+00,0.000000000000000e+00
	0.000000000000000e+00,0.000000000000000e+00
	1.515674477513588e-08,-2.058629507948729e-14
	1.515694364749830e-08,4.382550220378936e-14
	2.274365632447197e-06,-8.263601004825349e-14
	1.453512103690365e-06,1.301755725880010e-11
	-8.083690026624613e-09,-1.907950903712535e-14
	-3.719794046110937e-06,-1.291584173971472e-11
	-2.274365632447255e-06,8.263601004825638e-14
	-1.453512103691268e-06,-1.301755725880010e-11
	-2.274365632447255e-06,8.263601004825638e-14
47		2.951209226666381e+00,0.000000000000000e+00
	-2.274365632447255e-02,8.456084999242272e-10
	1.000000000000000e+00,0.000000000000000e+00
	0.000000000000000e+00,0.000000000000000e+00
	1.515674477513539e-08,-2.106581149186302e-14
	1.515694364749792e-08,4.484632928832251e-14
	2.274365632447197e-06,-8.456084999242197e-14
	1.453512103690365e-06,1.332077511954361e-11
	-8.083690026624403e-09,-1.952392789384774e-14
	-3.719794046110937e-06,-1.321669034165734e-11
	-2.274365632447255e-06,8.456084999242273e-14
	-1.453512103691268e-06,-1.332077511954361e-11
	-2.274365632447255e-06,8.456084999242273e-14
48		3.019951720402012e+00,0.000000000000000e+00
	-2.274365632447255e-02,8.653052521855023e-10
	1.000000000000000e+00,0.000000000000000e+00
	0.000000000000000e+00,0.000000000000000e+00
	1.515674477513488e-08,-2.155649727633078e-14
	1.515694364749753e-08,4.589093449025560e-14
	2.274365632447197e-06,-8.653052521854889e-14
	1.453512103690365e-06,1.363105583157680e-11
	-8.083690026624186e-09,-1.997869859556916e-14
	-3.719794046110937e-06,-1.352454660776268e-11
	-2.274365632447255e-06,8.653052521855024e-14
	-1.453512103691268e-06,-1.363105583157680e-11
	-2.274365632447255e-06,8.653052521855024e-14