Title: * GA CMOS Amp | W=1.89119547470164e-05 L=1.623197989338101e-07 Vbias=1.2839565920669163
Date: Sat Sep  6 22:34:29 2025
Plotname: AC Analysis
Flags: complex forward log
No. Variables: 13
No. Points:          901
Offset:    0.0000000000000000e+00
Command: Linear Technology Corporation LTspice
Variables:
	0	frequency	frequency
	1	V(out)	voltage
	2	V(g)	voltage
	3	V(vdd)	voltage
	4	V(m1#dbody)	voltage
	5	V(m1#sbody)	voltage
	6	Id(M1)	device_current
	7	Ig(M1)	device_current
	8	Ib(M1)	device_current
	9	Is(M1)	device_current
	10	I(Rload)	device_current
	11	I(Vg)	device_current
	12	I(Vdd)	device_current
Values:
0		1.000000000000000e+00,0.000000000000000e+00
	1.904846331089674e-04,4.396437410735551e-11
	1.000000000000000e+00,0.000000000000000e+00
	0.000000000000000e+00,0.000000000000000e+00
	1.081644120473815e-05,6.008141039665324e-15
	1.081644120303787e-05,5.920824657719815e-15
	-1.904846331089697e-08,-4.396437410735605e-15
	9.335373352880619e-06,9.007040599478425e-13
	-5.768768646095187e-06,-3.166678939188421e-15
	-3.547556243474536e-06,-8.931409435979184e-13
	1.904846331089674e-08,4.396437410735551e-15
	-9.335373352875598e-06,-9.007040599478423e-13
	1.904846331089674e-08,4.396437410735551e-15
1		1.023292992280754e+00,0.000000000000000e+00
	1.904846331089674e-04,4.498843593406634e-11
	1.000000000000000e+00,0.000000000000000e+00
	0.000000000000000e+00,0.000000000000000e+00
	1.081644120473815e-05,6.148088622523929e-15
	1.081644120303787e-05,6.058738380767782e-15
	-1.904846331089697e-08,-4.498843593406662e-15
	9.335373352880619e-06,9.216841526634516e-13
	-5.768768646095187e-06,-3.240440367274563e-15
	-3.547556243474536e-06,-9.139448687027704e-13
	1.904846331089674e-08,4.498843593406634e-15
	-9.335373352875598e-06,-9.216841526634514e-13
	1.904846331089674e-08,4.498843593406634e-15
2		1.047128548050899e+00,0.000000000000000e+00
	1.904846331089674e-04,4.603635122500173e-11
	1.000000000000000e+00,0.000000000000000e+00
	0.000000000000000e+00,0.000000000000000e+00
	1.081644120473815e-05,6.291296003349770e-15
	1.081644120303787e-05,6.199864527102113e-15
	-1.904846331089697e-08,-4.603635122500136e-15
	9.335373352880619e-06,9.431529345167343e-13
	-5.768768646095187e-06,-3.315919919735733e-15
	-3.547556243474536e-06,-9.352333794744986e-13
	1.904846331089674e-08,4.603635122500173e-15
	-9.335373352875598e-06,-9.431529345167343e-13
	1.904846331089674e-08,4.603635122500173e-15
3		1.071519305237606e+00,0.000000000000000e+00
	1.904846331089674e-04,4.710867559871979e-11
	1.000000000000000e+00,0.000000000000000e+00
	0.000000000000000e+00,0.000000000000000e+00
	1.081644120473815e-05,6.437839112591734e-15
	1.081644120303787e-05,6.344277923673623e-15
	-1.904846331089697e-08,-4.710867559871865e-15
	9.335373352880619e-06,9.651217885400034e-13
	-5.768768646095187e-06,-3.393157616829735e-15
	-3.547556243474536e-06,-9.570177633633017e-13
	1.904846331089674e-08,4.710867559871979e-15
	-9.335373352875598e-06,-9.651217885400032e-13
	1.904846331089674e-08,4.710867559871979e-15
4		1.096478196143185e+00,0.000000000000000e+00
	1.904846331089674e-04,4.820597761579731e-11
	1.000000000000000e+00,0.000000000000000e+00
	0.000000000000000e+00,0.000000000000000e+00
	1.081644120473815e-05,6.587795649346071e-15
	1.081644120303787e-05,6.492055140376710e-15
	-1.904846331089697e-08,-4.820597761579506e-15
	9.335373352880619e-06,9.876023629104531e-13
	-5.768768646095187e-06,-3.472194411005932e-15
	-3.547556243474536e-06,-9.793095707378676e-13
	1.904846331089674e-08,4.820597761579732e-15
	-9.335373352875598e-06,-9.876023629104527e-13
	1.904846331089674e-08,4.820597761579732e-15
5		1.122018454301963e+00,0.000000000000000e+00
	1.904846331089674e-04,4.932883908028830e-11
	1.000000000000000e+00,0.000000000000000e+00
	0.000000000000000e+00,0.000000000000000e+00
	1.081644120473815e-05,6.741245122553476e-15
	1.081644120303787e-05,6.643274530647737e-15
	-1.904846331089697e-08,-4.932883908028685e-15
	9.335373352880619e-06,1.010606577126181e-12
	-5.768768646095187e-06,-3.553072208618773e-15
	-3.547556243474536e-06,-1.002120621009534e-12
	1.904846331089674e-08,4.932883908028830e-15
	-9.335373352875598e-06,-1.010606577126181e-12
	1.904846331089674e-08,4.932883908028830e-15
6		1.148153621496882e+00,0.000000000000000e+00
	1.904846331089674e-04,5.047785534820398e-11
	1.000000000000000e+00,0.000000000000000e+00
	0.000000000000000e+00,0.000000000000000e+00
	1.081644120473815e-05,6.898268893155784e-15
	1.081644120303787e-05,6.798016273009044e-15
	-1.904846331089697e-08,-5.047785534820509e-15
	9.335373352880619e-06,1.034146628326061e-12
	-5.768768646095187e-06,-3.635833892147091e-15
	-3.547556243474536e-06,-1.025463008899093e-12
	1.904846331089674e-08,5.047785534820398e-15
	-9.335373352875598e-06,-1.034146628326060e-12
	1.904846331089674e-08,5.047785534820398e-15
7		1.174897554939529e+00,0.000000000000000e+00
	1.904846331089674e-04,5.165363564317874e-11
	1.000000000000000e+00,0.000000000000000e+00
	0.000000000000000e+00,0.000000000000000e+00
	1.081644120473815e-05,7.058950217234628e-15
	1.081644120303787e-05,6.956362413580685e-15
	-1.904846331089697e-08,-5.165363564317720e-15
	9.335373352880619e-06,1.058234997756827e-12
	-5.768768646095187e-06,-3.720523342930977e-15
	-3.547556243474536e-06,-1.049349110849578e-12
	1.904846331089674e-08,5.165363564317874e-15
	-9.335373352875598e-06,-1.058234997756827e-12
	1.904846331089674e-08,5.165363564317874e-15
8		1.202264434617413e+00,0.000000000000000e+00
	1.904846331089674e-04,5.285680337948819e-11
	1.000000000000000e+00,0.000000000000000e+00
	0.000000000000000e+00,0.000000000000000e+00
	1.081644120473815e-05,7.223374290154902e-15
	1.081644120303787e-05,7.118396909582349e-15
	-1.904846331089697e-08,-5.285680337948760e-15
	9.335373352880619e-06,1.082884457390801e-12
	-5.768768646095187e-06,-3.807185464438234e-15
	-3.547556243474536e-06,-1.073791591588414e-12
	1.904846331089674e-08,5.285680337948819e-15
	-9.335373352875598e-06,-1.082884457390801e-12
	1.904846331089674e-08,5.285680337948819e-15
9		1.230268770812381e+00,0.000000000000000e+00
	1.904846331089674e-04,5.408799649259194e-11
	1.000000000000000e+00,0.000000000000000e+00
	0.000000000000000e+00,0.000000000000000e+00
	1.081644120473815e-05,7.391628291736478e-15
	1.081644120303787e-05,7.284205673848594e-15
	-1.904846331089697e-08,-5.408799649259151e-15
	9.335373352880619e-06,1.108108076697753e-12
	-5.768768646095187e-06,-3.895866206072792e-15
	-3.547556243474536e-06,-1.098803410842421e-12
	1.904846331089674e-08,5.408799649259194e-15
	-9.335373352875598e-06,-1.108108076697753e-12
	1.904846331089674e-08,5.408799649259194e-15
10		1.258925411794167e+00,0.000000000000000e+00
	1.904846331089674e-04,5.534786777737535e-11
	1.000000000000000e+00,0.000000000000000e+00
	0.000000000000000e+00,0.000000000000000e+00
	1.081644120473815e-05,7.563801432478098e-15
	1.081644120303787e-05,7.453876620380973e-15
	-1.904846331089697e-08,-5.534786777737347e-15
	9.335373352880619e-06,1.133919229574516e-12
	-5.768768646095187e-06,-3.986612587537697e-15
	-3.547556243474536e-06,-1.124397830209240e-12
	1.904846331089674e-08,5.534786777737535e-15
	-9.335373352875598e-06,-1.133919229574515e-12
	1.904846331089674e-08,5.534786777737535e-15
11		1.288249551693134e+00,0.000000000000000e+00
	1.904846331089674e-04,5.663708523426995e-11
	1.000000000000000e+00,0.000000000000000e+00
	0.000000000000000e+00,0.000000000000000e+00
	1.081644120473815e-05,7.739985000857970e-15
	1.081644120303787e-05,7.627499710961204e-15
	-1.904846331089697e-08,-5.663708523426969e-15
	9.335373352880619e-06,1.160331601435993e-12
	-5.768768646095187e-06,-4.079472723765571e-15
	-3.547556243474536e-06,-1.150588420188801e-12
	1.904846331089674e-08,5.663708523426996e-15
	-9.335373352875598e-06,-1.160331601435993e-12
	1.904846331089674e-08,5.663708523426996e-15
12		1.318256738556407e+00,0.000000000000000e+00
	1.904846331089674e-04,5.795633242343621e-11
	1.000000000000000e+00,0.000000000000000e+00
	0.000000000000000e+00,0.000000000000000e+00
	1.081644120473815e-05,7.920272411736110e-15
	1.081644120303787e-05,7.805167002850080e-15
	-1.904846331089697e-08,-5.795633242343606e-15
	9.335373352880619e-06,1.187359196471357e-12
	-5.768768646095187e-06,-4.174495850429791e-15
	-3.547556243474536e-06,-1.177389067378584e-12
	1.904846331089674e-08,5.795633242343621e-15
	-9.335373352875598e-06,-1.187359196471357e-12
	1.904846331089674e-08,5.795633242343621e-15
13		1.348962882591653e+00,0.000000000000000e+00
	1.904846331089674e-04,5.930630882719615e-11
	1.000000000000000e+00,0.000000000000000e+00
	0.000000000000000e+00,0.000000000000000e+00
	1.081644120473815e-05,8.104759255884146e-15
	1.081644120303787e-05,7.986972697597459e-15
	-1.904846331089697e-08,-5.930630882719506e-15
	9.335373352880619e-06,1.215016345069247e-12
	-5.768768646095187e-06,-4.271732350049890e-15
	-3.547556243474536e-06,-1.204813981836478e-12
	1.904846331089674e-08,5.930630882719615e-15
	-9.335373352875598e-06,-1.215016345069247e-12
	1.904846331089674e-08,5.930630882719615e-15
14		1.380384264602885e+00,0.000000000000000e+00
	1.904846331089674e-04,6.068773022090804e-11
	1.000000000000000e+00,0.000000000000000e+00
	0.000000000000000e+00,0.000000000000000e+00
	1.081644120473815e-05,8.293543350668827e-15
	1.081644120303787e-05,8.173013190989192e-15
	-1.904846331089697e-08,-6.068773022090888e-15
	9.335373352880619e-06,1.243317711415935e-12
	-5.768768646095187e-06,-4.371233778705051e-15
	-3.547556243474536e-06,-1.232877704615139e-12
	1.904846331089674e-08,6.068773022090804e-15
	-9.335373352875598e-06,-1.243317711415935e-12
	1.904846331089674e-08,6.068773022090804e-15
15		1.412537544622754e+00,0.000000000000000e+00
	1.904846331089674e-04,6.210132905248015e-11
	1.000000000000000e+00,0.000000000000000e+00
	0.000000000000000e+00,0.000000000000000e+00
	1.081644120473815e-05,8.486724791916055e-15
	1.081644120303787e-05,8.363387124157405e-15
	-1.904846331089697e-08,-6.210132905247885e-15
	9.335373352880619e-06,1.272278301270471e-12
	-5.768768646095187e-06,-4.473052893369799e-15
	-3.547556243474536e-06,-1.261595115471854e-12
	1.904846331089674e-08,6.210132905248015e-15
	-9.335373352875598e-06,-1.272278301270471e-12
	1.904846331089674e-08,6.210132905248015e-15
16		1.445439770745927e+00,0.000000000000000e+00
	1.904846331089674e-04,6.354785483072412e-11
	1.000000000000000e+00,0.000000000000000e+00
	0.000000000000000e+00,0.000000000000000e+00
	1.081644120473815e-05,8.684406006983039e-15
	1.081644120303787e-05,8.558195435881359e-15
	-1.904846331089697e-08,-6.354785483072250e-15
	9.335373352880619e-06,1.301913469920935e-12
	-5.768768646095187e-06,-4.577243679886465e-15
	-3.547556243474536e-06,-1.290981440757976e-12
	1.904846331089674e-08,6.354785483072412e-15
	-9.335373352875598e-06,-1.301913469920935e-12
	1.904846331089674e-08,6.354785483072412e-15
17		1.479108388168207e+00,0.000000000000000e+00
	1.904846331089674e-04,6.502807452275466e-11
	1.000000000000000e+00,0.000000000000000e+00
	0.000000000000000e+00,0.000000000000000e+00
	1.081644120473815e-05,8.886691809066627e-15
	1.081644120303787e-05,8.757541416106528e-15
	-1.904846331089697e-08,-6.502807452275443e-15
	9.335373352880619e-06,1.332238930326013e-12
	-5.768768646095187e-06,-4.683861381589190e-15
	-3.547556243474536e-06,-1.321052261492149e-12
	1.904846331089674e-08,6.502807452275466e-15
	-9.335373352875598e-06,-1.332238930326013e-12
	1.904846331089674e-08,6.502807452275466e-15
18		1.513561248436208e+00,0.000000000000000e+00
	1.904846331089674e-04,6.654277296064549e-11
	1.000000000000000e+00,0.000000000000000e+00
	0.000000000000000e+00,0.000000000000000e+00
	1.081644120473815e-05,9.093689452776658e-15
	1.081644120303787e-05,8.961530760710283e-15
	-1.904846331089697e-08,-6.654277296064277e-15
	9.335373352880619e-06,1.363270761446217e-12
	-5.768768646095187e-06,-4.792962528594671e-15
	-3.547556243474536e-06,-1.351823521621558e-12
	1.904846331089674e-08,6.654277296064549e-15
	-9.335373352875598e-06,-1.363270761446217e-12
	1.904846331089674e-08,6.654277296064549e-15
19		1.548816618912481e+00,0.000000000000000e+00
	1.904846331089674e-04,6.809275325755778e-11
	1.000000000000000e+00,0.000000000000000e+00
	0.000000000000000e+00,0.000000000000000e+00
	1.081644120473815e-05,9.305508691003760e-15
	1.081644120303787e-05,9.170271627543248e-15
	-1.904846331089697e-08,-6.809275325755614e-15
	9.335373352880619e-06,1.395025416769161e-12
	-5.768768646095187e-06,-4.904604967775170e-15
	-3.547556243474536e-06,-1.383311536475631e-12
	1.904846331089674e-08,6.809275325755779e-15
	-9.335373352875598e-06,-1.395025416769161e-12
	1.904846331089674e-08,6.809275325755779e-15
20		1.584893192461113e+00,0.000000000000000e+00
	1.904846331089674e-04,6.967883723356137e-11
	1.000000000000000e+00,0.000000000000000e+00
	0.000000000000000e+00,0.000000000000000e+00
	1.081644120473815e-05,9.522261833111802e-15
	1.081644120303787e-05,9.383874693776034e-15
	-1.904846331089697e-08,-6.967883723356070e-15
	9.335373352880619e-06,1.427519733033422e-12
	-5.768768646095187e-06,-5.018847893429706e-15
	-3.547556243474536e-06,-1.415533001416636e-12
	1.904846331089674e-08,6.967883723356137e-15
	-9.335373352875598e-06,-1.427519733033421e-12
	1.904846331089674e-08,6.967883723356137e-15
21		1.621810097358929e+00,0.000000000000000e+00
	1.904846331089674e-04,7.130186585137462e-11
	1.000000000000000e+00,0.000000000000000e+00
	0.000000000000000e+00,0.000000000000000e+00
	1.081644120473815e-05,9.744063804485795e-15
	1.081644120303787e-05,9.602453214581721e-15
	-1.904846331089697e-08,-7.130186585137534e-15
	9.335373352880619e-06,1.460770939155593e-12
	-5.768768646095187e-06,-5.135751878669642e-15
	-3.547556243474536e-06,-1.448505000691786e-12
	1.904846331089674e-08,7.130186585137463e-15
	-9.335373352875598e-06,-1.460770939155593e-12
	1.904846331089674e-08,7.130186585137463e-15
22		1.659586907437560e+00,0.000000000000000e+00
	1.904846331089674e-04,7.296269966225406e-11
	1.000000000000000e+00,0.000000000000000e+00
	0.000000000000000e+00,0.000000000000000e+00
	1.081644120473815e-05,9.971032207466857e-15
	1.081644120303787e-05,9.826123083185277e-15
	-1.904846331089697e-08,-7.296269966225552e-15
	9.335373352880619e-06,1.494796665365295e-12
	-5.768768646095187e-06,-5.255378907535363e-15
	-3.547556243474536e-06,-1.482245016491534e-12
	1.904846331089674e-08,7.296269966225407e-15
	-9.335373352875598e-06,-1.494796665365294e-12
	1.904846331089674e-08,7.296269966225407e-15
23		1.698243652461743e+00,0.000000000000000e+00
	1.904846331089674e-04,7.466221926226994e-11
	1.000000000000000e+00,0.000000000000000e+00
	0.000000000000000e+00,0.000000000000000e+00
	1.081644120473815e-05,1.020328738370653e-14
	1.081644120303787e-05,1.005500289231165e-14
	-1.904846331089697e-08,-7.466221926226943e-15
	9.335373352880619e-06,1.529614952552945e-12
	-5.768768646095187e-06,-5.377792407861022e-15
	-3.547556243474536e-06,-1.516770938218857e-12
	1.904846331089674e-08,7.466221926226994e-15
	-9.335373352875598e-06,-1.529614952552945e-12
	1.904846331089674e-08,7.466221926226994e-15
24		1.737800828749374e+00,0.000000000000000e+00
	1.904846331089674e-04,7.640132575920994e-11
	1.000000000000000e+00,0.000000000000000e+00
	0.000000000000000e+00,0.000000000000000e+00
	1.081644120473815e-05,1.044095247797352e-14
	1.081644120303787e-05,1.028921399706522e-14
	-1.904846331089697e-08,-7.640132575920975e-15
	9.335373352880619e-06,1.565244261835287e-12
	-5.768768646095187e-06,-5.503057284904826e-15
	-3.547556243474536e-06,-1.552101071974461e-12
	1.904846331089674e-08,7.640132575920994e-15
	-9.335373352875598e-06,-1.565244261835287e-12
	1.904846331089674e-08,7.640132575920994e-15
25		1.778279410038922e+00,0.000000000000000e+00
	1.904846331089674e-04,7.818094125035861e-11
	1.000000000000000e+00,0.000000000000000e+00
	0.000000000000000e+00,0.000000000000000e+00
	1.081644120473815e-05,1.068415350344668e-14
	1.081644120303787e-05,1.052888057927389e-14
	-1.904846331089697e-08,-7.818094125035805e-15
	9.335373352880619e-06,1.601703484343711e-12
	-5.768768646095187e-06,-5.631239955762662e-15
	-3.547556243474536e-06,-1.588254150262912e-12
	1.904846331089674e-08,7.818094125035862e-15
	-9.335373352875598e-06,-1.601703484343711e-12
	1.904846331089674e-08,7.818094125035862e-15
26		1.819700858609982e+00,0.000000000000000e+00
	1.904846331089674e-04,8.000200931140528e-11
	1.000000000000000e+00,0.000000000000000e+00
	0.000000000000000e+00,0.000000000000000e+00
	1.081644120473815e-05,1.093301940852886e-14
	1.081644120303787e-05,1.077412971333190e-14
	-1.904846331089697e-08,-8.000200931140495e-15
	9.335373352880619e-06,1.639011951240586e-12
	-5.768768646095187e-06,-5.762408384583317e-15
	-3.547556243474536e-06,-1.625249341924862e-12
	1.904846331089674e-08,8.000200931140530e-15
	-9.335373352875598e-06,-1.639011951240585e-12
	1.904846331089674e-08,8.000200931140530e-15
27		1.862087136662866e+00,0.000000000000000e+00
	1.904846331089674e-04,8.186549549674067e-11
	1.000000000000000e+00,0.000000000000000e+00
	0.000000000000000e+00,0.000000000000000e+00
	1.081644120473815e-05,1.118768214521706e-14
	1.081644120303787e-05,1.102509143357638e-14
	-1.904846331089697e-08,-8.186549549673985e-15
	9.335373352880619e-06,1.677189443968896e-12
	-5.768768646095187e-06,-5.896632118603968e-15
	-3.547556243474536e-06,-1.663106262300618e-12
	1.904846331089674e-08,8.186549549674068e-15
	-9.335373352875598e-06,-1.677189443968896e-12
	1.904846331089674e-08,8.186549549674068e-15
28		1.905460717963246e+00,0.000000000000000e+00
	1.904846331089674e-04,8.377238785140635e-11
	1.000000000000000e+00,0.000000000000000e+00
	0.000000000000000e+00,0.000000000000000e+00
	1.081644120473815e-05,1.144827673906512e-14
	1.081644120303787e-05,1.128189880323329e-14
	-1.904846331089697e-08,-8.377238785140628e-15
	9.335373352880619e-06,1.716256204740626e-12
	-5.768768646095187e-06,-6.033982325025056e-15
	-3.547556243474536e-06,-1.701844983630461e-12
	1.904846331089674e-08,8.377238785140636e-15
	-9.335373352875598e-06,-1.716256204740626e-12
	1.904846331089674e-08,8.377238785140636e-15
29		1.949844599758044e+00,0.000000000000000e+00
	1.904846331089674e-04,8.572369743496951e-11
	1.000000000000000e+00,0.000000000000000e+00
	0.000000000000000e+00,0.000000000000000e+00
	1.081644120473815e-05,1.171494136077611e-14
	1.081644120303787e-05,1.154468798496925e-14
	-1.904846331089697e-08,-8.572369743497015e-15
	9.335373352880619e-06,1.756232947269446e-12
	-5.768768646095187e-06,-6.174531828744072e-15
	-3.547556243474536e-06,-1.741486045697205e-12
	1.904846331089674e-08,8.572369743496952e-15
	-9.335373352875598e-06,-1.756232947269446e-12
	1.904846331089674e-08,8.572369743496952e-15
30		1.995262314968878e+00,0.000000000000000e+00
	1.904846331089674e-04,8.772045885759996e-11
	1.000000000000000e+00,0.000000000000000e+00
	0.000000000000000e+00,0.000000000000000e+00
	1.081644120473815e-05,1.198781739946215e-14
	1.081644120303787e-05,1.181359831308685e-14
	-1.904846331089697e-08,-8.772045885759885e-15
	9.335373352880619e-06,1.797140867753399e-12
	-5.768768646095187e-06,-6.318355150968278e-15
	-3.547556243474536e-06,-1.782050466716671e-12
	1.904846331089674e-08,8.772045885759997e-15
	-9.335373352875598e-06,-1.797140867753399e-12
	1.904846331089674e-08,8.772045885759997e-15
31		2.041737944669527e+00,0.000000000000000e+00
	1.904846331089674e-04,8.976373082863424e-11
	1.000000000000000e+00,0.000000000000000e+00
	0.000000000000000e+00,0.000000000000000e+00
	1.081644120473815e-05,1.226704953761091e-14
	1.081644120303787e-05,1.208877236740151e-14
	-1.904846331089697e-08,-8.976373082863180e-15
	9.335373352880619e-06,1.839001656113407e-12
	-5.768768646095187e-06,-6.465528548726845e-15
	-3.547556243474536e-06,-1.823559754481817e-12
	1.904846331089674e-08,8.976373082863424e-15
	-9.335373352875598e-06,-1.839001656113406e-12
	1.904846331089674e-08,8.976373082863424e-15
32		2.089296130854037e+00,0.000000000000000e+00
	1.904846331089674e-04,9.185459671791731e-11
	1.000000000000000e+00,0.000000000000000e+00
	0.000000000000000e+00,0.000000000000000e+00
	1.081644120473815e-05,1.255278582779811e-14
	1.081644120303787e-05,1.237035604883919e-14
	-1.904846331089697e-08,-9.185459671791827e-15
	9.335373352880619e-06,1.881837507493551e-12
	-5.768768646095187e-06,-6.616130055303334e-15
	-3.547556243474536e-06,-1.866035917766455e-12
	1.904846331089674e-08,9.185459671791730e-15
	-9.335373352875598e-06,-1.881837507493550e-12
	1.904846331089674e-08,9.185459671791730e-15
33		2.137962089502230e+00,0.000000000000000e+00
	1.904846331089674e-04,9.399416513021954e-11
	1.000000000000000e+00,0.000000000000000e+00
	0.000000000000000e+00,0.000000000000000e+00
	1.081644120473815e-05,1.284517777118697e-14
	1.081644120303787e-05,1.265849865679498e-14
	-1.904846331089655e-08,-9.399416513021914e-15
	9.335373352880619e-06,1.925671134029231e-12
	-5.768768646095187e-06,-6.770239521609980e-15
	-3.547556243474536e-06,-1.909501477994599e-12
	1.904846331089674e-08,9.399416513021955e-15
	-9.335373352875598e-06,-1.925671134029231e-12
	1.904846331089674e-08,9.399416513021955e-15
34		2.187761623949550e+00,0.000000000000000e+00
	1.904846331089674e-04,9.618357049303368e-11
	1.000000000000000e+00,0.000000000000000e+00
	0.000000000000000e+00,0.000000000000000e+00
	1.081644120473815e-05,1.314438039785615e-14
	1.081644120303787e-05,1.295335296829364e-14
	-1.904846331089655e-08,-9.618357049303428e-15
	9.335373352880619e-06,1.970525776889445e-12
	-5.768768646095187e-06,-6.927938658525698e-15
	-3.547556243474536e-06,-1.953979481181616e-12
	1.904846331089674e-08,9.618357049303368e-15
	-9.335373352875598e-06,-1.970525776889445e-12
	1.904846331089674e-08,9.618357049303368e-15
35		2.238721138568337e+00,0.000000000000000e+00
	1.904846331089674e-04,9.842397365806327e-11
	1.000000000000000e+00,0.000000000000000e+00
	0.000000000000000e+00,0.000000000000000e+00
	1.081644120473815e-05,1.345055234899871e-14
	1.081644120303787e-05,1.325507531899399e-14
	-1.904846331089655e-08,-9.842397365806240e-15
	9.335373352880619e-06,2.016425218599558e-12
	-5.768768646095187e-06,-7.089311080220276e-15
	-3.547556243474536e-06,-1.999493510153532e-12
	1.904846331089674e-08,9.842397365806328e-15
	-9.335373352875598e-06,-2.016425218599557e-12
	1.904846331089674e-08,9.842397365806328e-15
36		2.290867652767770e+00,0.000000000000000e+00
	1.904846331089674e-04,1.007165625167217e-10
	1.000000000000000e+00,0.000000000000000e+00
	0.000000000000000e+00,0.000000000000000e+00
	1.081644120473815e-05,1.376385596103581e-14
	1.081644120303787e-05,1.356382568608013e-14
	-1.904846331089655e-08,-1.007165625167185e-14
	9.335373352880619e-06,2.063393795651115e-12
	-5.768768646095187e-06,-7.254442348487710e-15
	-3.547556243474536e-06,-2.046067697050955e-12
	1.904846331089674e-08,1.007165625167217e-14
	-9.335373352875598e-06,-2.063393795651114e-12
	1.904846331089674e-08,1.007165625167217e-14
37		2.344228815319919e+00,0.000000000000000e+00
	1.904846331089674e-04,1.030625526299678e-10
	1.000000000000000e+00,0.000000000000000e+00
	0.000000000000000e+00,0.000000000000000e+00
	1.081644120473815e-05,1.408445735168963e-14
	1.081644120303787e-05,1.387976777308349e-14
	-1.904846331089655e-08,-1.030625526299667e-14
	9.335373352880619e-06,2.111456411405372e-12
	-5.768768646095187e-06,-7.423420018112210e-15
	-3.547556243474536e-06,-2.093726736124264e-12
	1.904846331089674e-08,1.030625526299678e-14
	-9.335373352875598e-06,-2.111456411405372e-12
	1.904846331089674e-08,1.030625526299678e-14
38		2.398832919019488e+00,0.000000000000000e+00
	1.904846331089674e-04,1.054631878728124e-10
	1.000000000000000e+00,0.000000000000000e+00
	0.000000000000000e+00,0.000000000000000e+00
	1.081644120473815e-05,1.441252650806115e-14
	1.081644120303787e-05,1.420306909668058e-14
	-1.904846331089655e-08,-1.054631878728117e-14
	9.335373352880619e-06,2.160638549297387e-12
	-5.768768646095187e-06,-7.596333683290895e-15
	-3.547556243474536e-06,-2.142495896826815e-12
	1.904846331089674e-08,1.054631878728124e-14
	-9.335373352875598e-06,-2.160638549297386e-12
	1.904846331089674e-08,1.054631878728124e-14
39		2.454708915685027e+00,0.000000000000000e+00
	1.904846331089674e-04,1.079197410938376e-10
	1.000000000000000e+00,0.000000000000000e+00
	0.000000000000000e+00,0.000000000000000e+00
	1.081644120473815e-05,1.474823737675957e-14
	1.081644120303787e-05,1.453390107551258e-14
	-1.904846331089655e-08,-1.079197410938369e-14
	9.335373352880619e-06,2.210966286347671e-12
	-5.768768646095187e-06,-7.773275025137818e-15
	-3.547556243474536e-06,-2.192401037213149e-12
	1.904846331089674e-08,1.079197410938376e-14
	-9.335373352875598e-06,-2.210966286347670e-12
	1.904846331089674e-08,1.079197410938376e-14
40		2.511886431509577e+00,0.000000000000000e+00
	1.904846331089674e-04,1.104335147900773e-10
	1.000000000000000e+00,0.000000000000000e+00
	0.000000000000000e+00,0.000000000000000e+00
	1.081644120473815e-05,1.509176795613117e-14
	1.081644120303787e-05,1.487243912107374e-14
	-1.904846331089655e-08,-1.104335147900745e-14
	9.335373352880619e-06,2.262466306988574e-12
	-5.768768646095187e-06,-7.954337860294534e-15
	-3.547556243474536e-06,-2.243468617649272e-12
	1.904846331089674e-08,1.104335147900773e-14
	-9.335373352875598e-06,-2.262466306988574e-12
	1.904846331089674e-08,1.104335147900773e-14
41		2.570395782768860e+00,0.000000000000000e+00
	1.904846331089674e-04,1.130058417976191e-10
	1.000000000000000e+00,0.000000000000000e+00
	0.000000000000000e+00,0.000000000000000e+00
	1.081644120473815e-05,1.544330039063626e-14
	1.081644120303787e-05,1.521886273071689e-14
	-1.904846331089655e-08,-1.130058417976174e-14
	9.335373352880619e-06,2.315165917212725e-12
	-5.768768646095187e-06,-8.139618190672884e-15
	-3.547556243474536e-06,-2.295725714842291e-12
	1.904846331089674e-08,1.130058417976191e-14
	-9.335373352875598e-06,-2.315165917212724e-12
	1.904846331089674e-08,1.130058417976191e-14
42		2.630267991895378e+00,0.000000000000000e+00
	1.904846331089674e-04,1.156380859982912e-10
	1.000000000000000e+00,0.000000000000000e+00
	0.000000000000000e+00,0.000000000000000e+00
	1.081644120473815e-05,1.580302106742472e-14
	1.081644120303787e-05,1.557335558282534e-14
	-1.904846331089697e-08,-1.156380859982906e-14
	9.335373352880619e-06,2.369093059051027e-12
	-5.768768646095187e-06,-8.329214254356513e-15
	-3.547556243474536e-06,-2.349200036196841e-12
	1.904846331089674e-08,1.156380859982912e-14
	-9.335373352875598e-06,-2.369093059051025e-12
	1.904846331089674e-08,1.156380859982912e-14
43		2.691534803926912e+00,0.000000000000000e+00
	1.904846331089674e-04,1.183316430428105e-10
	1.000000000000000e+00,0.000000000000000e+00
	0.000000000000000e+00,0.000000000000000e+00
	1.081644120473815e-05,1.617112071516084e-14
	1.081644120303787e-05,1.593610563420153e-14
	-1.904846331089697e-08,-1.183316430428081e-14
	9.335373352880619e-06,2.424276325387891e-12
	-5.768768646095187e-06,-8.523226577687988e-15
	-3.547556243474536e-06,-2.403919934505921e-12
	1.904846331089674e-08,1.183316430428106e-14
	-9.335373352875598e-06,-2.424276325387890e-12
	1.904846331089674e-08,1.183316430428106e-14
44		2.754228703338163e+00,0.000000000000000e+00
	1.904846331089674e-04,1.210879410907757e-10
	1.000000000000000e+00,0.000000000000000e+00
	0.000000000000000e+00,0.000000000000000e+00
	1.081644120473815e-05,1.654779450515022e-14
	1.081644120303787e-05,1.630730521972427e-14
	-1.904846331089697e-08,-1.210879410907751e-14
	9.335373352880619e-06,2.480744975121565e-12
	-5.768768646095187e-06,-8.721758028569190e-15
	-3.547556243474536e-06,-2.459914422983918e-12
	1.904846331089674e-08,1.210879410907757e-14
	-9.335373352875598e-06,-2.480744975121564e-12
	1.904846331089674e-08,1.210879410907757e-14
45		2.818382931264450e+00,0.000000000000000e+00
	1.904846331089674e-04,1.239084415678955e-10
	1.000000000000000e+00,0.000000000000000e+00
	0.000000000000000e+00,0.000000000000000e+00
	1.081644120473815e-05,1.693324215482219e-14
	1.081644120303787e-05,1.668715115432720e-14
	-1.904846331089697e-08,-1.239084415678949e-14
	9.335373352880619e-06,2.538528948677591e-12
	-5.768768646095187e-06,-8.924913871003256e-15
	-3.547556243474536e-06,-2.517213190649799e-12
	1.904846331089674e-08,1.239084415678955e-14
	-9.335373352875598e-06,-2.538528948677591e-12
	1.904846331089674e-08,1.239084415678955e-14
46		2.884031503126602e+00,0.000000000000000e+00
	1.904846331089674e-04,1.267946399408568e-10
	1.000000000000000e+00,0.000000000000000e+00
	0.000000000000000e+00,0.000000000000000e+00
	1.081644120473815e-05,1.732766803362260e-14
	1.081644120303787e-05,1.707584483735272e-14
	-1.904846331089697e-08,-1.267946399408528e-14
	9.335373352880619e-06,2.597658883883609e-12
	-5.768768646095187e-06,-9.132801820906931e-15
	-3.547556243474536e-06,-2.575846618068616e-12
	1.904846331089674e-08,1.267946399408568e-14
	-9.335373352875598e-06,-2.597658883883608e-12
	1.904846331089674e-08,1.267946399408568e-14
47		2.951209226666381e+00,0.000000000000000e+00
	1.904846331089674e-04,1.297480665102402e-10
	1.000000000000000e+00,0.000000000000000e+00
	0.000000000000000e+00,0.000000000000000e+00
	1.081644120473815e-05,1.773128127137324e-14
	1.081644120303787e-05,1.747359235933654e-14
	-1.904846331089697e-08,-1.297480665102391e-14
	9.335373352880619e-06,2.658166132213943e-12
	-5.768768646095187e-06,-9.345532103222977e-15
	-3.547556243474536e-06,-2.635845793459696e-12
	1.904846331089674e-08,1.297480665102402e-14
	-9.335373352875598e-06,-2.658166132213941e-12
	1.904846331089674e-08,1.297480665102402e-14
48		3.019951720402012e+00,0.000000000000000e+00
	1.904846331089674e-04,1.327702872219059e-10
	1.000000000000000e+00,0.000000000000000e+00
	0.000000000000000e+00,0.000000000000000e+00
	1.081644120473815e-05,1.814429586915522e-14
	1.081644120303787e-05,1.788060461127961e-14
	-1.904846331089697e-08,-1.327702872219040e-14
	9.335373352880619e-06,2.720082775412564e-12
	-5.768768646095187e-06,-9.563217510362888e-15
	-3.547556243474536e-06,-2.697242529180010e-12
	1.904846331089674e-08,1.327702872219060e-14
	-9.335373352875598e-06,-2.720082775412563e-12
	1.904846331089674e-08,1.327702872219060e-14
49		3.090295432513586e+00,0.000000000000000e+00
	1.904846331089674e-04,1.358629044972793e-10
	1.000000000000000e+00,0.000000000000000e+00
	0.000000000000000e+00,0.000000000000000e+00