Title: * GA CMOS Amp | W=1e-06 L=6.13327679136823e-07 Vbias=0.7593377118117792
Date: Mon Sep  8 21:05:15 2025
Plotname: AC Analysis
Flags: complex forward log nocompression
No. Variables: 2
No. Points:         3601
Offset:    0.0000000000000000e+00
Command: Linear Technology Corporation LTspice
Variables:
	0	frequency	frequency
	1	V(out)	voltage
Values:
0		1.000000000000000e+00,0.000000000000000e+00
	-2.710392270862022e-03,1.260014375179313e-11
1		1.005773063001738e+00,0.000000000000000e+00
	-2.710392270862022e-03,1.267288517550319e-11
2		1.011579454259899e+00,0.000000000000000e+00
	-2.710392270862022e-03,1.274604654003517e-11
3		1.017419366180605e+00,0.000000000000000e+00
	-2.710392270862022e-03,1.281963026973388e-11
4		1.023292992280754e+00,0.000000000000000e+00
	-2.710392270862022e-03,1.289363880294004e-11
5		1.029200527194428e+00,0.000000000000000e+00
	-2.710392270862022e-03,1.296807459207107e-11
6		1.035142166679344e+00,0.000000000000000e+00
	-2.710392270862022e-03,1.304294010370234e-11
7		1.041118107623340e+00,0.000000000000000e+00
	-2.710392270862022e-03,1.311823781864891e-11
8		1.047128548050900e+00,0.000000000000000e+00
	-2.710392270862022e-03,1.319397023204776e-11
9		1.053173687129716e+00,0.000000000000000e+00
	-2.710392270862022e-03,1.327013985344043e-11
10		1.059253725177289e+00,0.000000000000000e+00
	-2.710392270862022e-03,1.334674920685622e-11
11		1.065368863667564e+00,0.000000000000000e+00
	-2.710392270862022e-03,1.342380083089580e-11
12		1.071519305237607e+00,0.000000000000000e+00
	-2.710392270862022e-03,1.350129727881535e-11
13		1.077705253694323e+00,0.000000000000000e+00
	-2.710392270862022e-03,1.357924111861115e-11
14		1.083926914021204e+00,0.000000000000000e+00
	-2.710392270862022e-03,1.365763493310469e-11
15		1.090184492385128e+00,0.000000000000000e+00
	-2.710392270862022e-03,1.373648132002824e-11
16		1.096478196143186e+00,0.000000000000000e+00
	-2.710392270862022e-03,1.381578289211097e-11
17		1.102808233849553e+00,0.000000000000000e+00
	-2.710392270862022e-03,1.389554227716547e-11
18		1.109174815262402e+00,0.000000000000000e+00
	-2.710392270862022e-03,1.397576211817486e-11
19		1.115578151350854e+00,0.000000000000000e+00
	-2.710392270862022e-03,1.405644507338039e-11
20		1.122018454301965e+00,0.000000000000000e+00
	-2.710392270862022e-03,1.413759381636949e-11
21		1.128495937527763e+00,0.000000000000000e+00
	-2.710392270862022e-03,1.421921103616438e-11
22		1.135010815672317e+00,0.000000000000000e+00
	-2.710392270862022e-03,1.430129943731117e-11
23		1.141563304618847e+00,0.000000000000000e+00
	-2.710392270862022e-03,1.438386173996949e-11
24		1.148153621496885e+00,0.000000000000000e+00
	-2.710392270862022e-03,1.446690068000263e-11
25		1.154781984689460e+00,0.000000000000000e+00
	-2.710392270862022e-03,1.455041900906817e-11
26		1.161448613840345e+00,0.000000000000000e+00
	-2.710392270862022e-03,1.463441949470921e-11
27		1.168153729861326e+00,0.000000000000000e+00
	-2.710392270862022e-03,1.471890492044603e-11
28		1.174897554939532e+00,0.000000000000000e+00
	-2.710392270862022e-03,1.480387808586837e-11
29		1.181680312544786e+00,0.000000000000000e+00
	-2.710392270862022e-03,1.488934180672814e-11
30		1.188502227437020e+00,0.000000000000000e+00
	-2.710392270862022e-03,1.497529891503279e-11
31		1.195363525673721e+00,0.000000000000000e+00
	-2.710392270862022e-03,1.506175225913914e-11
32		1.202264434617415e+00,0.000000000000000e+00
	-2.710392270862022e-03,1.514870470384773e-11
33		1.209205182943211e+00,0.000000000000000e+00
	-2.710392270862022e-03,1.523615913049777e-11
34		1.216186000646371e+00,0.000000000000000e+00
	-2.710392270862022e-03,1.532411843706265e-11
35		1.223207119049934e+00,0.000000000000000e+00
	-2.710392270862022e-03,1.541258553824591e-11
36		1.230268770812384e+00,0.000000000000000e+00
	-2.710392270862022e-03,1.550156336557788e-11
37		1.237371189935355e+00,0.000000000000000e+00
	-2.710392270862022e-03,1.559105486751280e-11
38		1.244514611771388e+00,0.000000000000000e+00
	-2.710392270862022e-03,1.568106300952651e-11
39		1.251699273031728e+00,0.000000000000000e+00
	-2.710392270862022e-03,1.577159077421473e-11
40		1.258925411794170e+00,0.000000000000000e+00
	-2.710392270862022e-03,1.586264116139190e-11
41		1.266193267510947e+00,0.000000000000000e+00
	-2.710392270862022e-03,1.595421718819059e-11
42		1.273503081016665e+00,0.000000000000000e+00
	-2.710392270862022e-03,1.604632188916143e-11
43		1.280855094536282e+00,0.000000000000000e+00
	-2.710392270862022e-03,1.613895831637373e-11
44		1.288249551693137e+00,0.000000000000000e+00
	-2.710392270862022e-03,1.623212953951658e-11
45		1.295686697517022e+00,0.000000000000000e+00
	-2.710392270862022e-03,1.632583864600059e-11
46		1.303166778452302e+00,0.000000000000000e+00
	-2.710392270862022e-03,1.642008874106016e-11
47		1.310690042366080e+00,0.000000000000000e+00
	-2.710392270862022e-03,1.651488294785644e-11
48		1.318256738556410e+00,0.000000000000000e+00
	-2.710392270862022e-03,1.661022440758075e-11
49		1.325867117760563e+00,0.000000000000000e+00
	-2.710392270862022e-03,1.670611627955872e-11
50		1.333521432163328e+00,0.000000000000000e+00
	-2.710392270862022e-03,1.680256174135498e-11
51		1.341219935405375e+00,0.000000000000000e+00
	-2.710392270862022e-03,1.689956398887842e-11
52		1.348962882591657e+00,0.000000000000000e+00
	-2.710392270862022e-03,1.699712623648812e-11
53		1.356750530299865e+00,0.000000000000000e+00
	-2.710392270862022e-03,1.709525171709987e-11
54		1.364583136588928e+00,0.000000000000000e+00
	-2.710392270862022e-03,1.719394368229326e-11
55		1.372460961007566e+00,0.000000000000000e+00
	-2.710392270862022e-03,1.729320540241948e-11
56		1.380384264602889e+00,0.000000000000000e+00
	-2.710392270862022e-03,1.739304016670965e-11
57		1.388353309929050e+00,0.000000000000000e+00
	-2.710392270862022e-03,1.749345128338383e-11
58		1.396368361055942e+00,0.000000000000000e+00
	-2.710392270862022e-03,1.759444207976064e-11
59		1.404429683577952e+00,0.000000000000000e+00
	-2.710392270862022e-03,1.769601590236754e-11
60		1.412537544622759e+00,0.000000000000000e+00
	-2.710392270862022e-03,1.779817611705167e-11
61		1.420692212860187e+00,0.000000000000000e+00
	-2.710392270862022e-03,1.790092610909144e-11
62		1.428893958511108e+00,0.000000000000000e+00
	-2.710392270862022e-03,1.800426928330869e-11
63		1.437143053356396e+00,0.000000000000000e+00
	-2.710392270862022e-03,1.810820906418149e-11
64		1.445439770745933e+00,0.000000000000000e+00
	-2.710392270862022e-03,1.821274889595766e-11
65		1.453784385607667e+00,0.000000000000000e+00
	-2.710392270862022e-03,1.831789224276886e-11
66		1.462177174456723e+00,0.000000000000000e+00
	-2.710392270862022e-03,1.842364258874542e-11
67		1.470618415404566e+00,0.000000000000000e+00
	-2.710392270862022e-03,1.853000343813175e-11
68		1.479108388168213e+00,0.000000000000000e+00
	-2.710392270862022e-03,1.863697831540252e-11
69		1.487647374079508e+00,0.000000000000000e+00
	-2.710392270862022e-03,1.874457076537937e-11
70		1.496235656094439e+00,0.000000000000000e+00
	-2.710392270862022e-03,1.885278435334844e-11
71		1.504873518802520e+00,0.000000000000000e+00
	-2.710392270862022e-03,1.896162266517851e-11
72		1.513561248436214e+00,0.000000000000000e+00
	-2.710392270862022e-03,1.907108930743978e-11
73		1.522299132880426e+00,0.000000000000000e+00
	-2.710392270862022e-03,1.918118790752340e-11
74		1.531087461682036e+00,0.000000000000000e+00
	-2.710392270862022e-03,1.929192211376171e-11
75		1.539926526059498e+00,0.000000000000000e+00
	-2.710392270862022e-03,1.940329559554908e-11
76		1.548816618912488e+00,0.000000000000000e+00
	-2.710392270862022e-03,1.951531204346355e-11
77		1.557758034831609e+00,0.000000000000000e+00
	-2.710392270862022e-03,1.962797516938905e-11
78		1.566751070108156e+00,0.000000000000000e+00
	-2.710392270862022e-03,1.974128870663848e-11
79		1.575796022743931e+00,0.000000000000000e+00
	-2.710392270862022e-03,1.985525641007741e-11
80		1.584893192461120e+00,0.000000000000000e+00
	-2.710392270862022e-03,1.996988205624845e-11
81		1.594042880712224e+00,0.000000000000000e+00
	-2.710392270862022e-03,2.008516944349646e-11
82		1.603245390690048e+00,0.000000000000000e+00
	-2.710392270862022e-03,2.020112239209435e-11
83		1.612501027337748e+00,0.000000000000000e+00
	-2.710392270862022e-03,2.031774474436974e-11
84		1.621810097358937e+00,0.000000000000000e+00
	-2.710392270862022e-03,2.043504036483222e-11
85		1.631172909227846e+00,0.000000000000000e+00
	-2.710392270862022e-03,2.055301314030146e-11
86		1.640589773199547e+00,0.000000000000000e+00
	-2.710392270862022e-03,2.067166698003598e-11
87		1.650061001320235e+00,0.000000000000000e+00
	-2.710392270862022e-03,2.079100581586268e-11
88		1.659586907437568e+00,0.000000000000000e+00
	-2.710392270862022e-03,2.091103360230716e-11
89		1.669167807211066e+00,0.000000000000000e+00
	-2.710392270862022e-03,2.103175431672475e-11
90		1.678804018122569e+00,0.000000000000000e+00
	-2.710392270862022e-03,2.115317195943229e-11
91		1.688495859486762e+00,0.000000000000000e+00
	-2.710392270862022e-03,2.127529055384070e-11
92		1.698243652461753e+00,0.000000000000000e+00
	-2.710392270862022e-03,2.139811414658830e-11
93		1.708047720059717e+00,0.000000000000000e+00
	-2.710392270862022e-03,2.152164680767495e-11
94		1.717908387157597e+00,0.000000000000000e+00
	-2.710392270862022e-03,2.164589263059681e-11
95		1.727825980507873e+00,0.000000000000000e+00
	-2.710392270862022e-03,2.177085573248212e-11
96		1.737800828749385e+00,0.000000000000000e+00
	-2.710392270862022e-03,2.189654025422749e-11
97		1.747833262418228e+00,0.000000000000000e+00
	-2.710392270862022e-03,2.202295036063525e-11
98		1.757923613958702e+00,0.000000000000000e+00
	-2.710392270862022e-03,2.215009024055135e-11
99		1.768072217734330e+00,0.000000000000000e+00
	-2.710392270862022e-03,2.227796410700424e-11
100		1.778279410038933e+00,0.000000000000000e+00
	-2.710392270862022e-03,2.240657619734444e-11
101		1.788545529107782e+00,0.000000000000000e+00
	-2.710392270862022e-03,2.253593077338496e-11
102		1.798870915128798e+00,0.000000000000000e+00
	-2.710392270862022e-03,2.266603212154252e-11
103		1.809255910253831e+00,0.000000000000000e+00
	-2.710392270862022e-03,2.279688455297961e-11
104		1.819700858609994e+00,0.000000000000000e+00
	-2.710392270862022e-03,2.292849240374732e-11
105		1.830206106311067e+00,0.000000000000000e+00
	-2.710392270862022e-03,2.306086003492903e-11
106		1.840772001468967e+00,0.000000000000000e+00
	-2.710392270862022e-03,2.319399183278494e-11
107		1.851398894205283e+00,0.000000000000000e+00
	-2.710392270862022e-03,2.332789220889741e-11
108		1.862087136662879e+00,0.000000000000000e+00
	-2.710392270862022e-03,2.346256560031714e-11
109		1.872837083017560e+00,0.000000000000000e+00
	-2.710392270862022e-03,2.359801646971019e-11
110		1.883649089489812e+00,0.000000000000000e+00
	-2.710392270862022e-03,2.373424930550588e-11
111		1.894523514356604e+00,0.000000000000000e+00
	-2.710392270862022e-03,2.387126862204553e-11
112		1.905460717963259e+00,0.000000000000000e+00
	-2.710392270862022e-03,2.400907895973202e-11
113		1.916461062735399e+00,0.000000000000000e+00
	-2.710392270862022e-03,2.414768488518026e-11
114		1.927524913190948e+00,0.000000000000000e+00
	-2.710392270862022e-03,2.428709099136853e-11
115		1.938652635952220e+00,0.000000000000000e+00
	-2.710392270862022e-03,2.442730189779065e-11
116		1.949844599758058e+00,0.000000000000000e+00
	-2.710392270862022e-03,2.456832225060907e-11
117		1.961101175476061e+00,0.000000000000000e+00
	-2.710392270862022e-03,2.471015672280885e-11
118		1.972422736114867e+00,0.000000000000000e+00
	-2.710392270862022e-03,2.485281001435246e-11
119		1.983809656836519e+00,0.000000000000000e+00
	-2.710392270862022e-03,2.499628685233555e-11
120		1.995262314968893e+00,0.000000000000000e+00
	-2.710392270862022e-03,2.514059199114360e-11
121		2.006781090018203e+00,0.000000000000000e+00
	-2.710392270862022e-03,2.528573021260947e-11
122		2.018366363681575e+00,0.000000000000000e+00
	-2.710392270862022e-03,2.543170632617182e-11
123		2.030018519859698e+00,0.000000000000000e+00
	-2.710392270862022e-03,2.557852516903452e-11
124		2.041737944669544e+00,0.000000000000000e+00
	-2.710392270862022e-03,2.572619160632691e-11
125		2.053525026457161e+00,0.000000000000000e+00
	-2.710392270862022e-03,2.587471053126503e-11
126		2.065380155810544e+00,0.000000000000000e+00
	-2.710392270862022e-03,2.602408686531376e-11
127		2.077303725572579e+00,0.000000000000000e+00
	-2.710392270862022e-03,2.617432555834992e-11
128		2.089296130854055e+00,0.000000000000000e+00
	-2.710392270862022e-03,2.632543158882628e-11
129		2.101357769046763e+00,0.000000000000000e+00
	-2.710392270862022e-03,2.647740996393653e-11
130		2.113489039836662e+00,0.000000000000000e+00
	-2.710392270862022e-03,2.663026571978119e-11
131		2.125690345217123e+00,0.000000000000000e+00
	-2.710392270862022e-03,2.678400392153452e-11
132		2.137962089502248e+00,0.000000000000000e+00
	-2.710392270862022e-03,2.693862966361234e-11
133		2.150304679340273e+00,0.000000000000000e+00
	-2.710392270862022e-03,2.709414806984087e-11
134		2.162718523727037e+00,0.000000000000000e+00
	-2.710392270862022e-03,2.725056429362649e-11
135		2.175204034019540e+00,0.000000000000000e+00
	-2.710392270862022e-03,2.740788351812651e-11
136		2.187761623949570e+00,0.000000000000000e+00
	-2.710392270862022e-03,2.756611095642097e-11
137		2.200391709637416e+00,0.000000000000000e+00
	-2.710392270862022e-03,2.772525185168529e-11
138		2.213094709605655e+00,0.000000000000000e+00
	-2.710392270862022e-03,2.788531147736414e-11
139		2.225871044793023e+00,0.000000000000000e+00
	-2.710392270862022e-03,2.804629513734606e-11
140		2.238721138568358e+00,0.000000000000000e+00
	-2.710392270862022e-03,2.820820816613931e-11
141		2.251645416744636e+00,0.000000000000000e+00
	-2.710392270862022e-03,2.837105592904857e-11
142		2.264644307593079e+00,0.000000000000000e+00
	-2.710392270862022e-03,2.853484382235281e-11
143		2.277718241857341e+00,0.000000000000000e+00
	-2.710392270862022e-03,2.869957727348402e-11
144		2.290867652767792e+00,0.000000000000000e+00
	-2.710392270862022e-03,2.886526174120710e-11
145		2.304092976055865e+00,0.000000000000000e+00
	-2.710392270862022e-03,2.903190271580075e-11
146		2.317394649968498e+00,0.000000000000000e+00
	-2.710392270862022e-03,2.919950571923941e-11
147		2.330773115282658e+00,0.000000000000000e+00
	-2.710392270862022e-03,2.936807630537620e-11
148		2.344228815319942e+00,0.000000000000000e+00
	-2.710392270862022e-03,2.953762006012699e-11
149		2.357762195961275e+00,0.000000000000000e+00
	-2.710392270862022e-03,2.970814260165551e-11
150		2.371373705661676e+00,0.000000000000000e+00
	-2.710392270862022e-03,2.987964958055950e-11
151		2.385063795465127e+00,0.000000000000000e+00
	-2.710392270862022e-03,3.005214668005793e-11
152		2.398832919019512e+00,0.000000000000000e+00
	-2.710392270862022e-03,3.022563961617939e-11
153		2.412681532591656e+00,0.000000000000000e+00
	-2.710392270862022e-03,3.040013413795143e-11
154		2.426610095082438e+00,0.000000000000000e+00
	-2.710392270862022e-03,3.057563602759113e-11
155		2.440619068042003e+00,0.000000000000000e+00
	-2.710392270862022e-03,3.075215110069662e-11
156		2.454708915685053e+00,0.000000000000000e+00
	-2.710392270862022e-03,3.092968520643992e-11
157		2.468880104906232e+00,0.000000000000000e+00
	-2.710392270862022e-03,3.110824422776062e-11
158		2.483133105295594e+00,0.000000000000000e+00
	-2.710392270862022e-03,3.128783408156095e-11
159		2.497468389154167e+00,0.000000000000000e+00
	-2.710392270862022e-03,3.146846071890174e-11
160		2.511886431509604e+00,0.000000000000000e+00
	-2.710392270862022e-03,3.165013012519969e-11
161		2.526387710131921e+00,0.000000000000000e+00
	-2.710392270862022e-03,3.183284832042568e-11
162		2.540972705549330e+00,0.000000000000000e+00
	-2.710392270862022e-03,3.201662135930428e-11
163		2.555641901064163e+00,0.000000000000000e+00
	-2.710392270862022e-03,3.220145533151434e-11
164		2.570395782768889e+00,0.000000000000000e+00
	-2.710392270862022e-03,3.238735636189084e-11
165		2.585234839562216e+00,0.000000000000000e+00
	-2.710392270862022e-03,3.257433061062777e-11
166		2.600159563165298e+00,0.000000000000000e+00
	-2.710392270862022e-03,3.276238427348238e-11
167		2.615170448138023e+00,0.000000000000000e+00
	-2.710392270862022e-03,3.295152358198036e-11
168		2.630267991895408e+00,0.000000000000000e+00
	-2.710392270862022e-03,3.314175480362239e-11
169		2.645452694724076e+00,0.000000000000000e+00
	-2.710392270862022e-03,3.333308424209186e-11
170		2.660725059798836e+00,0.000000000000000e+00
	-2.710392270862022e-03,3.352551823746371e-11
171		2.676085593199359e+00,0.000000000000000e+00
	-2.710392270862022e-03,3.371906316641452e-11
172		2.691534803926943e+00,0.000000000000000e+00
	-2.710392270862022e-03,3.391372544243383e-11
173		2.707073203921385e+00,0.000000000000000e+00
	-2.710392270862022e-03,3.410951151603665e-11
174		2.722701308077940e+00,0.000000000000000e+00
	-2.710392270862022e-03,3.430642787497724e-11
175		2.738419634264389e+00,0.000000000000000e+00
	-2.710392270862022e-03,3.450448104446408e-11
176		2.754228703338195e+00,0.000000000000000e+00
	-2.710392270862022e-03,3.470367758737606e-11
177		2.770129039163762e+00,0.000000000000000e+00
	-2.710392270862022e-03,3.490402410447999e-11
178		2.786121168629800e+00,0.000000000000000e+00
	-2.710392270862022e-03,3.510552723464935e-11
179		2.802205621666776e+00,0.000000000000000e+00
	-2.710392270862022e-03,3.530819365508422e-11
180		2.818382931264483e+00,0.000000000000000e+00
	-2.710392270862022e-03,3.551203008153259e-11
181		2.834653633489697e+00,0.000000000000000e+00
	-2.710392270862022e-03,3.571704326851291e-11
182		2.851018267503939e+00,0.000000000000000e+00
	-2.710392270862022e-03,3.592324000953784e-11
183		2.867477375581346e+00,0.000000000000000e+00
	-2.710392270862022e-03,3.613062713733947e-11
184		2.884031503126637e+00,0.000000000000000e+00
	-2.710392270862022e-03,3.633921152409564e-11
185		2.900681198693185e+00,0.000000000000000e+00
	-2.710392270862022e-03,3.654900008165774e-11
186		2.917427014001198e+00,0.000000000000000e+00
	-2.710392270862022e-03,3.675999976177969e-11
187		2.934269503956000e+00,0.000000000000000e+00
	-2.710392270862022e-03,3.697221755634833e-11
188		2.951209226666418e+00,0.000000000000000e+00
	-2.710392270862022e-03,3.718566049761510e-11
189		2.968246743463274e+00,0.000000000000000e+00
	-2.710392270862022e-03,3.740033565842909e-11
190		2.985382618917992e+00,0.000000000000000e+00
	-2.710392270862022e-03,3.761625015247136e-11
191		3.002617420861300e+00,0.000000000000000e+00
	-2.710392270862022e-03,3.783341113449072e-11
192		3.019951720402049e+00,0.000000000000000e+00
	-2.710392270862022e-03,3.805182580054080e-11
193		3.037386091946138e+00,0.000000000000000e+00
	-2.710392270862022e-03,3.827150138821850e-11
194		3.054921113215547e+00,0.000000000000000e+00
	-2.710392270862022e-03,3.849244517690380e-11
195		3.072557365267481e+00,0.000000000000000e+00
	-2.710392270862022e-03,3.871466448800102e-11
196		3.090295432513625e+00,0.000000000000000e+00
	-2.710392270862022e-03,3.893816668518141e-11
197		3.108135902739511e+00,0.000000000000000e+00
	-2.710392270862022e-03,3.916295917462715e-11
198		3.126079367123991e+00,0.000000000000000e+00
	-2.710392270862022e-03,3.938904940527679e-11
199		3.144126420258832e+00,0.000000000000000e+00
	-2.710392270862022e-03,3.961644486907203e-11
200		3.162277660168416e+00,0.000000000000000e+00
	-2.710392270862022e-03,3.984515310120607e-11
201		3.180533688329558e+00,0.000000000000000e+00
	-2.710392270862022e-03,4.007518168037325e-11
202		3.198895109691435e+00,0.000000000000000e+00
	-2.710392270862022e-03,4.030653822902014e-11
203		3.217362532695637e+00,0.000000000000000e+00
	-2.710392270862022e-03,4.053923041359825e-11
204		3.235936569296321e+00,0.000000000000000e+00
	-2.710392270862022e-03,4.077326594481794e-11
205		3.254617834980497e+00,0.000000000000000e+00
	-2.710392270862022e-03,4.100865257790400e-11
206		3.273406948788421e+00,0.000000000000000e+00
	-2.710392270862022e-03,4.124539811285264e-11
207		3.292304533334104e+00,0.000000000000000e+00
	-2.710392270862022e-03,4.148351039468992e-11
208		3.311311214825951e+00,0.000000000000000e+00
	-2.710392270862022e-03,4.172299731373173e-11
209		3.330427623087504e+00,0.000000000000000e+00
	-2.710392270862022e-03,4.196386680584526e-11
210		3.349654391578317e+00,0.000000000000000e+00
	-2.710392270862022e-03,4.220612685271196e-11
211		3.368992157414949e+00,0.000000000000000e+00
	-2.710392270862022e-03,4.244978548209203e-11
212		3.388441561392067e+00,0.000000000000000e+00
	-2.710392270862022e-03,4.269485076809042e-11
213		3.408003248003692e+00,0.000000000000000e+00
	-2.710392270862022e-03,4.294133083142442e-11
214		3.427677865464546e+00,0.000000000000000e+00
	-2.710392270862022e-03,4.318923383969272e-11
215		3.447466065731537e+00,0.000000000000000e+00
	-2.710392270862022e-03,4.343856800764608e-11
216		3.467368504525360e+00,0.000000000000000e+00
	-2.710392270862022e-03,4.368934159745950e-11
217		3.487385841352228e+00,0.000000000000000e+00
	-2.710392270862022e-03,4.394156291900611e-11
218		3.507518739525725e+00,0.000000000000000e+00
	-2.710392270862022e-03,4.419524033013238e-11
219		3.527767866188785e+00,0.000000000000000e+00
	-2.710392270862022e-03,4.445038223693520e-11
220		3.548133892335800e+00,0.000000000000000e+00
	-2.710392270862022e-03,4.470699709404038e-11
221		3.568617492834858e+00,0.000000000000000e+00
	-2.710392270862022e-03,4.496509340488281e-11
222		3.589219346450099e+00,0.000000000000000e+00
	-2.710392270862022e-03,4.522467972198824e-11
223		3.609940135864213e+00,0.000000000000000e+00
	-2.710392270862022e-03,4.548576464725672e-11
224		3.630780547701061e+00,0.000000000000000e+00
	-2.710392270862022e-03,4.574835683224757e-11
225		3.651741272548425e+00,0.000000000000000e+00
	-2.710392270862022e-03,4.601246497846614e-11
226		3.672823004980895e+00,0.000000000000000e+00
	-2.710392270862022e-03,4.627809783765210e-11
227		3.694026443582883e+00,0.000000000000000e+00
	-2.710392270862022e-03,4.654526421206947e-11
228		3.715352290971774e+00,0.000000000000000e+00
	-2.710392270862022e-03,4.681397295479830e-11
229		3.736801253821207e+00,0.000000000000000e+00
	-2.710392270862022e-03,4.708423297002803e-11
230		3.758374042884492e+00,0.000000000000000e+00
	-2.710392270862022e-03,4.735605321335253e-11
231		3.780071373018162e+00,0.000000000000000e+00
	-2.710392270862022e-03,4.762944269206688e-11
232		3.801893963205663e+00,0.000000000000000e+00
	-2.710392270862022e-03,4.790441046546586e-11
233		3.823842536581178e+00,0.000000000000000e+00
	-2.710392270862022e-03,4.818096564514413e-11
234		3.845917820453588e+00,0.000000000000000e+00
	-2.710392270862022e-03,4.845911739529814e-11
235		3.868120546330575e+00,0.000000000000000e+00
	-2.710392270862022e-03,4.873887493302984e-11
236		3.890451449942860e+00,0.000000000000000e+00
	-2.710392270862022e-03,4.902024752865205e-11
237		3.912911271268584e+00,0.000000000000000e+00
	-2.710392270862022e-03,4.930324450599577e-11
238		3.935500754557829e+00,0.000000000000000e+00
	-2.710392270862022e-03,4.958787524271899e-11
239		3.958220648357280e+00,0.000000000000000e+00
	-2.710392270862022e-03,4.987414917061755e-11
240		3.981071705535028e+00,0.000000000000000e+00
	-2.710392270862022e-03,5.016207577593762e-11
241		4.004054683305520e+00,0.000000000000000e+00
	-2.710392270862022e-03,5.045166459969008e-11
242		4.027170343254648e+00,0.000000000000000e+00
	-2.710392270862022e-03,5.074292523796665e-11
243		4.050419451364989e+00,0.000000000000000e+00
	-2.710392270862022e-03,5.103586734225793e-11
244		4.073802778041185e+00,0.000000000000000e+00
	-2.710392270862022e-03,5.133050061977315e-11
245		4.097321098135473e+00,0.000000000000000e+00
	-2.710392270862022e-03,5.162683483376186e-11
246		4.120975190973360e+00,0.000000000000000e+00
	-2.710392270862022e-03,5.192487980383749e-11
247		4.144765840379450e+00,0.000000000000000e+00
	-2.710392270862022e-03,5.222464540630274e-11
248		4.168693834703413e+00,0.000000000000000e+00
	-2.710392270862022e-03,5.252614157447677e-11
249		4.192759966846114e+00,0.000000000000000e+00
	-2.710392270862022e-03,5.282937829902444e-11
250		4.216965034285883e+00,0.000000000000000e+00
	-2.710392270862022e-03,5.313436562828737e-11
251		4.241309839104942e+00,0.000000000000000e+00
	-2.710392270862022e-03,5.344111366861688e-11
252		4.265795188015987e+00,0.000000000000000e+00
	-2.710392270862022e-03,5.374963258470886e-11
253		4.290421892388916e+00,0.000000000000000e+00
	-2.710392270862022e-03,5.405993259994067e-11
254		4.315190768277715e+00,0.000000000000000e+00
	-2.710392270862022e-03,5.437202399670985e-11
255		4.340102636447502e+00,0.000000000000000e+00
	-2.710392270862022e-03,5.468591711677489e-11
256		4.365158322401724e+00,0.000000000000000e+00
	-2.710392270862022e-03,5.500162236159787e-11
257		4.390358656409512e+00,0.000000000000000e+00
	-2.710392270862022e-03,5.531915019268919e-11
258		4.415704473533191e+00,0.000000000000000e+00
	-2.710392270862022e-03,5.563851113195422e-11
259		4.441196613655956e+00,0.000000000000000e+00
	-2.710392270862022e-03,5.595971576204192e-11
260		4.466835921509698e+00,0.000000000000000e+00
	-2.710392270862022e-03,5.628277472669555e-11
261		4.492623246703002e+00,0.000000000000000e+00
	-2.710392270862022e-03,5.660769873110541e-11
262		4.518559443749292e+00,0.000000000000000e+00
	-2.710392270862022e-03,5.693449854226350e-11
263		4.544645372095157e+00,0.000000000000000e+00
	-2.710392270862022e-03,5.726318498932036e-11
264		4.570881896148820e+00,0.000000000000000e+00
	-2.710392270862022e-03,5.759376896394390e-11
265		4.597269885308792e+00,0.000000000000000e+00
	-2.710392270862022e-03,5.792626142068030e-11
266		4.623810213992674e+00,0.000000000000000e+00
	-2.710392270862022e-03,5.826067337731706e-11
267		4.650503761666135e+00,0.000000000000000e+00
	-2.710392270862022e-03,5.859701591524801e-11
268		4.677351412872055e+00,0.000000000000000e+00
	-2.710392270862022e-03,5.893530017984059e-11
269		4.704354057259835e+00,0.000000000000000e+00
	-2.710392270862022e-03,5.927553738080519e-11
270		4.731512589614879e+00,0.000000000000000e+00
	-2.710392270862022e-03,5.961773879256646e-11
271		4.758827909888244e+00,0.000000000000000e+00
	-2.710392270862022e-03,5.996191575463712e-11
272		4.786300923226460e+00,0.000000000000000e+00
	-2.710392270862022e-03,6.030807967199357e-11
273		4.813932540001524e+00,0.000000000000000e+00
	-2.710392270862022e-03,6.065624201545384e-11
274		4.841723675841071e+00,0.000000000000000e+00
	-2.710392270862022e-03,6.100641432205776e-11
275		4.869675251658710e+00,0.000000000000000e+00
	-2.710392270862022e-03,6.135860819544914e-11
276		4.897788193684542e+00,0.000000000000000e+00
	-2.710392270862022e-03,6.171283530626044e-11
277		4.926063433495853e+00,0.000000000000000e+00
	-2.710392270862022e-03,6.206910739249939e-11
278		4.954501908047983e+00,0.000000000000000e+00
	-2.710392270862022e-03,6.242743625993794e-11
279		4.983104559705377e+00,0.000000000000000e+00
	-2.710392270862022e-03,6.278783378250357e-11
280		5.011872336272805e+00,0.000000000000000e+00
	-2.710392270862022e-03,6.315031190267263e-11
281		5.040806191026777e+00,0.000000000000000e+00
	-2.710392270862022e-03,6.351488263186618e-11
282		5.069907082747127e+00,0.000000000000000e+00
	-2.710392270862022e-03,6.388155805084797e-11
283		5.099175975748786e+00,0.000000000000000e+00
	-2.710392270862022e-03,6.425035031012470e-11
284		5.128613839913734e+00,0.000000000000000e+00
	-2.710392270862022e-03,6.462127163034882e-11
285		5.158221650723143e+00,0.000000000000000e+00
	-2.710392270862022e-03,6.499433430272327e-11
286		5.188000389289698e+00,0.000000000000000e+00
	-2.710392270862022e-03,6.536955068940893e-11
287		5.217951042390110e+00,0.000000000000000e+00
	-2.710392270862022e-03,6.574693322393422e-11
288		5.248074602497814e+00,0.000000000000000e+00
	-2.710392270862022e-03,6.612649441160706e-11
289		5.278372067815857e+00,0.000000000000000e+00
	-2.710392270862022e-03,6.650824682992937e-11
290		5.308844442309973e+00,0.000000000000000e+00
	-2.710392270862022e-03,6.689220312901371e-11
291		5.339492735741857e+00,0.000000000000000e+00
	-2.710392270862022e-03,6.727837603200258e-11
292		5.370317963702618e+00,0.000000000000000e+00
	-2.710392270862022e-03,6.766677833548997e-11
293		5.401321147646440e+00,0.000000000000000e+00
	-2.710392270862022e-03,6.805742290994540e-11
294		5.432503314924425e+00,0.000000000000000e+00
	-2.710392270862022e-03,6.845032270014047e-11
295		5.463865498818635e+00,0.000000000000000e+00
	-2.710392270862022e-03,6.884549072557770e-11
296		5.495408738576340e+00,0.000000000000000e+00
	-2.710392270862022e-03,6.924294008092205e-11
297		5.527134079444444e+00,0.000000000000000e+00
	-2.710392270862022e-03,6.964268393643480e-11
298		5.559042572704132e+00,0.000000000000000e+00
	-2.710392270862022e-03,7.004473553840998e-11
299		5.591135275705699e+00,0.000000000000000e+00
	-2.710392270862022e-03,7.044910820961332e-11
300		5.623413251903589e+00,0.000000000000000e+00
	-2.710392270862022e-03,7.085581534972371e-11
301		5.655877570891638e+00,0.000000000000000e+00
	-2.710392270862022e-03,7.126487043577719e-11
302		5.688529308438514e+00,0.000000000000000e+00
	-2.710392270862022e-03,7.167628702261364e-11
303		5.721369546523364e+00,0.000000000000000e+00
	-2.710392270862022e-03,7.209007874332588e-11
304		5.754399373371671e+00,0.000000000000000e+00
	-2.710392270862022e-03,7.250625930971138e-11
305		5.787619883491309e+00,0.000000000000000e+00
	-2.710392270862022e-03,7.292484251272671e-11
306		5.821032177708817e+00,0.000000000000000e+00
	-2.710392270862022e-03,7.334584222294452e-11
307		5.854637363205876e+00,0.000000000000000e+00
	-2.710392270862022e-03,7.376927239101315e-11
308		5.888436553555995e+00,0.000000000000000e+00
	-2.710392270862022e-03,7.419514704811886e-11
309		5.922430868761412e+00,0.000000000000000e+00
	-2.710392270862022e-03,7.462348030645088e-11
310		5.956621435290212e+00,0.000000000000000e+00
	-2.710392270862022e-03,7.505428635966901e-11
311		5.991009386113647e+00,0.000000000000000e+00
	-2.710392270862022e-03,7.548757948337388e-11
312		6.025595860743686e+00,0.000000000000000e+00
	-2.710392270862022e-03,7.592337403558012e-11