Title: * GA CMOS Amp | W=2.3221765381406217e-05 L=1e-06 Vbias=0.9226201835938725
Date: Mon Sep  8 18:44:52 2025
Plotname: Operating Point
Flags: real
No. Variables: 10
No. Points:            1
Offset:    0.0000000000000000e+00
Command: Linear Technology Corporation LTspice
Variables:
	0	V(out)	voltage
	1	V(g)	voltage
	2	V(vdd)	voltage
	3	Id(M1)	device_current
	4	Ig(M1)	device_current
	5	Ib(M1)	device_current
	6	Is(M1)	device_current
	7	I(Rload)	device_current
	8	I(Vg)	device_current
	9	I(Vdd)	device_current
Values:
0		1.392716724203012e+00
	9.226201835938724e-01
	1.800000000000000e+00
	4.072825054897421e-05
	0.000000000000000e+00
	-1.402716724203012e-12
	-4.072824914625749e-05
	-4.072832757969882e-05
	0.000000000000000e+00
	-4.072832757969882e-05
