Title: * GA CMOS Amp | W=1.0718147501069572e-06 L=6.314531625674658e-07 Vbias=1.1798193888854602
Date: Mon Sep  8 18:46:19 2025
Plotname: Operating Point
Flags: real
No. Variables: 10
No. Points:            1
Offset:    0.0000000000000000e+00
Command: Linear Technology Corporation LTspice
Variables:
	0	V(out)	voltage
	1	V(g)	voltage
	2	V(vdd)	voltage
	3	Id(M1)	device_current
	4	Ig(M1)	device_current
	5	Ib(M1)	device_current
	6	Is(M1)	device_current
	7	I(Rload)	device_current
	8	I(Vg)	device_current
	9	I(Vdd)	device_current
Values:
0		1.716146866748752e+00
	1.179819388885460e+00
	1.800000000000000e+00
	8.385306452752150e-06
	0.000000000000000e+00
	-1.726146866748752e-12
	-8.385304726605283e-06
	-8.385313325124777e-06
	0.000000000000000e+00
	-8.385313325124765e-06
