Title: * GA CMOS Amp | W=3.9843594750709874e-05 L=9.400715412440405e-07 Vbias=0.875885700581147
Date: Mon Sep  8 18:44:14 2025
Plotname: AC Analysis
Flags: complex forward log
No. Variables: 11
No. Points:          901
Offset:    0.0000000000000000e+00
Command: Linear Technology Corporation LTspice
Variables:
	0	frequency	frequency
	1	V(out)	voltage
	2	V(g)	voltage
	3	V(vdd)	voltage
	4	Id(M1)	device_current
	5	Ig(M1)	device_current
	6	Ib(M1)	device_current
	7	Is(M1)	device_current
	8	I(Rload)	device_current
	9	I(Vg)	device_current
	10	I(Vdd)	device_current
Values:
0		1.000000000000000e+00,0.000000000000000e+00
	-6.437667800895269e+00,3.543089335967015e-09
	1.000000000000000e+00,0.000000000000000e+00
	0.000000000000000e+00,0.000000000000000e+00
	6.437667800895270e-04,-3.543089335967015e-13
	1.773987196694493e-22,6.445658012562113e-13
	6.437667781668266e-12,-8.842659669928522e-15
	-6.437667865271948e-04,-2.814142079895813e-13
	-6.437667800895270e-04,3.543089335967015e-13
	-1.773987196694493e-22,-6.445658012562114e-13
	-6.437667800895270e-04,3.543089335967015e-13
1		1.023292992280754e+00,0.000000000000000e+00
	-6.437667800895269e+00,3.625618488519717e-09
	1.000000000000000e+00,0.000000000000000e+00
	0.000000000000000e+00,0.000000000000000e+00
	6.437667800895270e-04,-3.625618488519717e-13
	1.857592637535590e-22,6.595796674893104e-13
	6.437667781668266e-12,-9.048631673361493e-15
	-6.437667865271948e-04,-2.879691869639772e-13
	-6.437667800895270e-04,3.625618488519717e-13
	-1.857592637535590e-22,-6.595796674893104e-13
	-6.437667800895270e-04,3.625618488519717e-13
2		1.047128548050899e+00,0.000000000000000e+00
	-6.437667800895269e+00,3.710069991985766e-09
	1.000000000000000e+00,0.000000000000000e+00
	0.000000000000000e+00,0.000000000000000e+00
	6.437667800895270e-04,-3.710069991985766e-13
	1.945138281412683e-22,6.749432515926812e-13
	6.437667781668266e-12,-9.259401381080582e-15
	-6.437667865271948e-04,-2.946768510130241e-13
	-6.437667800895270e-04,3.710069991985766e-13
	-1.945138281412683e-22,-6.749432515926812e-13
	-6.437667800895270e-04,3.710069991985766e-13
3		1.071519305237606e+00,0.000000000000000e+00
	-6.437667800895269e+00,3.796488623670147e-09
	1.000000000000000e+00,0.000000000000000e+00
	0.000000000000000e+00,0.000000000000000e+00
	6.437667800895270e-04,-3.796488623670147e-13
	2.036809824373884e-22,6.906646995419765e-13
	6.437667781668266e-12,-9.475080545974397e-15
	-6.437667865271948e-04,-3.015407566289874e-13
	-6.437667800895270e-04,3.796488623670147e-13
	-2.036809824373884e-22,-6.906646995419766e-13
	-6.437667800895270e-04,3.796488623670147e-13
4		1.096478196143185e+00,0.000000000000000e+00
	-6.437667800895269e+00,3.884920203875267e-09
	1.000000000000000e+00,0.000000000000000e+00
	0.000000000000000e+00,0.000000000000000e+00
	6.437667800895270e-04,-3.884920203875267e-13
	2.132801714052432e-22,7.067523470569971e-13
	6.437667781668266e-12,-9.695783523991385e-15
	-6.437667865271948e-04,-3.085645431454791e-13
	-6.437667800895270e-04,3.884920203875267e-13
	-2.132801714052432e-22,-7.067523470569971e-13
	-6.437667800895270e-04,3.884920203875267e-13
5		1.122018454301963e+00,0.000000000000000e+00
	-6.437667800895269e+00,3.975411620195480e-09
	1.000000000000000e+00,0.000000000000000e+00
	0.000000000000000e+00,0.000000000000000e+00
	6.437667800895270e-04,-3.975411620195480e-13
	2.233317562116194e-22,7.232147240214007e-13
	6.437667781668266e-12,-9.921627334771503e-15
	-6.437667865271948e-04,-3.157519346670812e-13
	-6.437667800895270e-04,3.975411620195480e-13
	-2.233317562116194e-22,-7.232147240214007e-13
	-6.437667800895270e-04,3.975411620195480e-13
6		1.148153621496882e+00,0.000000000000000e+00
	-6.437667800895269e+00,4.068010852377513e-09
	1.000000000000000e+00,0.000000000000000e+00
	0.000000000000000e+00,0.000000000000000e+00
	6.437667800895270e-04,-4.068010852377513e-13
	2.338570576155305e-22,7.400605590053589e-13
	6.437667781668266e-12,-1.015273172369295e-14
	-6.437667865271948e-04,-3.231067420439147e-13
	-6.437667800895270e-04,4.068010852377513e-13
	-2.338570576155305e-22,-7.400605590053589e-13
	-6.437667800895270e-04,4.068010852377513e-13
7		1.174897554939529e+00,0.000000000000000e+00
	-6.437667800895269e+00,4.162766997759966e-09
	1.000000000000000e+00,0.000000000000000e+00
	0.000000000000000e+00,0.000000000000000e+00
	6.437667800895270e-04,-4.162766997759966e-13
	2.448784011924059e-22,7.572987838935612e-13
	6.437667781668266e-12,-1.038921922536139e-14
	-6.437667865271948e-04,-3.306328648922032e-13
	-6.437667800895270e-04,4.162766997759966e-13
	-2.448784011924059e-22,-7.572987838935613e-13
	-6.437667800895270e-04,4.162766997759966e-13
8		1.202264434617413e+00,0.000000000000000e+00
	-6.437667800895269e+00,4.259730297305368e-09
	1.000000000000000e+00,0.000000000000000e+00
	0.000000000000000e+00,0.000000000000000e+00
	6.437667800895270e-04,-4.259730297305367e-13
	2.564191646896298e-22,7.749385386210184e-13
	6.437667781668266e-12,-1.063121522858078e-14
	-6.437667865271948e-04,-3.383342936619010e-13
	-6.437667800895270e-04,4.259730297305368e-13
	-2.564191646896298e-22,-7.749385386210185e-13
	-6.437667800895270e-04,4.259730297305368e-13
9		1.230268770812381e+00,0.000000000000000e+00
	-6.437667800895269e+00,4.358952162238595e-09
	1.000000000000000e+00,0.000000000000000e+00
	0.000000000000000e+00,0.000000000000000e+00
	6.437667800895270e-04,-4.358952162238595e-13
	2.685038276138764e-22,7.929891760191768e-13
	6.437667781668266e-12,-1.087884804283528e-14
	-6.437667865271948e-04,-3.462151117524820e-13
	-6.437667800895270e-04,4.358952162238596e-13
	-2.685038276138764e-22,-7.929891760191768e-13
	-6.437667800895270e-04,4.358952162238596e-13
10		1.258925411794167e+00,0.000000000000000e+00
	-6.437667800895269e+00,4.460485201305795e-09
	1.000000000000000e+00,0.000000000000000e+00
	0.000000000000000e+00,0.000000000000000e+00
	6.437667800895270e-04,-4.460485201305795e-13
	2.811580231554274e-22,8.114602667749130e-13
	6.437667781668266e-12,-1.113224896632045e-14
	-6.437667865271948e-04,-3.542794976780130e-13
	-6.437667800895270e-04,4.460485201305795e-13
	-2.811580231554274e-22,-8.114602667749130e-13
	-6.437667800895270e-04,4.460485201305795e-13
11		1.288249551693134e+00,0.000000000000000e+00
	-6.437667800895269e+00,4.564383248668230e-09
	1.000000000000000e+00,0.000000000000000e+00
	0.000000000000000e+00,0.000000000000000e+00
	6.437667800895270e-04,-4.564383248668230e-13
	2.944085925596040e-22,8.303616045050399e-13
	6.437667781668266e-12,-1.139155235556047e-14
	-6.437667865271948e-04,-3.625317272826565e-13
	-6.437667800895270e-04,4.564383248668231e-13
	-2.944085925596040e-22,-8.303616045050399e-13
	-6.437667800895270e-04,4.564383248668231e-13
12		1.318256738556407e+00,0.000000000000000e+00
	-6.437667800895269e+00,4.670701392445862e-09
	1.000000000000000e+00,0.000000000000000e+00
	0.000000000000000e+00,0.000000000000000e+00
	6.437667800895270e-04,-4.670701392445862e-13
	3.082836420606469e-22,8.497032109490102e-13
	6.437667781668266e-12,-1.165689569664426e-14
	-6.437667865271948e-04,-3.709761760077798e-13
	-6.437667800895270e-04,4.670701392445861e-13
	-3.082836420606469e-22,-8.497032109490103e-13
	-6.437667800895270e-04,4.670701392445861e-13
13		1.348962882591653e+00,0.000000000000000e+00
	-6.437667800895269e+00,4.779496003925811e-09
	1.000000000000000e+00,0.000000000000000e+00
	0.000000000000000e+00,0.000000000000000e+00
	6.437667800895270e-04,-4.779496003925812e-13
	3.228126024988085e-22,8.694953412825776e-13
	6.437667781668266e-12,-1.192841967812374e-14
	-6.437667865271948e-04,-3.796173212118727e-13
	-6.437667800895270e-04,4.779496003925811e-13
	-3.228126024988085e-22,-8.694953412825776e-13
	-6.437667800895270e-04,4.779496003925811e-13
14		1.380384264602885e+00,0.000000000000000e+00
	-6.437667800895269e+00,4.890824767451151e-09
	1.000000000000000e+00,0.000000000000000e+00
	0.000000000000000e+00,0.000000000000000e+00
	6.437667800895270e-04,-4.890824767451152e-13
	3.380262917471096e-22,8.897484895552245e-13
	6.437667781668266e-12,-1.220626826560787e-14
	-6.437667865271948e-04,-3.884597445445015e-13
	-6.437667800895270e-04,4.890824767451151e-13
	-3.380262917471096e-22,-8.897484895552246e-13
	-6.437667800895270e-04,4.890824767451151e-13
15		1.412537544622754e+00,0.000000000000000e+00
	-6.437667800895269e+00,5.004746711005911e-09
	1.000000000000000e+00,0.000000000000000e+00
	0.000000000000000e+00,0.000000000000000e+00
	6.437667800895270e-04,-5.004746711005912e-13
	3.539569800801806e-22,9.104733942542470e-13
	6.437667781668266e-12,-1.249058877809554e-14
	-6.437667865271948e-04,-3.975081343755602e-13
	-6.437667800895270e-04,5.004746711005912e-13
	-3.539569800801806e-22,-9.104733942542470e-13
	-6.437667800895270e-04,5.004746711005912e-13
16		1.445439770745927e+00,0.000000000000000e+00
	-6.437667800895269e+00,5.121322237512500e-09
	1.000000000000000e+00,0.000000000000000e+00
	0.000000000000000e+00,0.000000000000000e+00
	6.437667800895270e-04,-5.121322237512500e-13
	3.706384586238405e-22,9.316810439984429e-13
	6.437667781668266e-12,-1.278153196608582e-14
	-6.437667865271948e-04,-4.067672882811071e-13
	-6.437667800895270e-04,5.121322237512500e-13
	-3.706384586238405e-22,-9.316810439984429e-13
	-6.437667800895270e-04,5.121322237512500e-13
17		1.479108388168207e+00,0.000000000000000e+00
	-6.437667800895269e+00,5.240613156858133e-09
	1.000000000000000e+00,0.000000000000000e+00
	0.000000000000000e+00,0.000000000000000e+00
	6.437667800895270e-04,-5.240613156858134e-13
	3.881061110306054e-22,9.533826833644233e-13
	6.437667781668266e-12,-1.307925209150785e-14
	-6.437667865271948e-04,-4.162421155871021e-13
	-6.437667800895270e-04,5.240613156858134e-13
	-3.881061110306054e-22,-9.533826833644235e-13
	-6.437667800895270e-04,5.240613156858134e-13
18		1.513561248436208e+00,0.000000000000000e+00
	-6.437667800895269e+00,5.362682718667249e-09
	1.000000000000000e+00,0.000000000000000e+00
	0.000000000000000e+00,0.000000000000000e+00
	6.437667800895270e-04,-5.362682718667249e-13
	4.063969885331592e-22,9.755898188486356e-13
	6.437667781668266e-12,-1.338390700951348e-14
	-6.437667865271948e-04,-4.259376399723973e-13
	-6.437667800895270e-04,5.362682718667250e-13
	-4.063969885331592e-22,-9.755898188486358e-13
	-6.437667800895270e-04,5.362682718667250e-13
19		1.548816618912481e+00,0.000000000000000e+00
	-6.437667800895269e+00,5.487595645837297e-09
	1.000000000000000e+00,0.000000000000000e+00
	0.000000000000000e+00,0.000000000000000e+00
	6.437667800895270e-04,-5.487595645837297e-13
	4.255498885349848e-22,9.983142249682592e-13
	6.437667781668266e-12,-1.369565825217255e-14
	-6.437667865271948e-04,-4.358590021323570e-13
	-6.437667800895270e-04,5.487595645837298e-13
	-4.255498885349848e-22,-9.983142249682594e-13
	-6.437667800895270e-04,5.487595645837298e-13
20		1.584893192461113e+00,0.000000000000000e+00
	-6.437667800895269e+00,5.615418168855687e-09
	1.000000000000000e+00,0.000000000000000e+00
	0.000000000000000e+00,0.000000000000000e+00
	6.437667800895270e-04,-5.615418168855687e-13
	4.456054369048611e-22,1.021567950504212e-12
	6.437667781668266e-12,-1.401467111412008e-14
	-6.437667865271948e-04,-4.460114625045232e-13
	-6.437667800895270e-04,5.615418168855688e-13
	-4.456054369048611e-22,-1.021567950504212e-12
	-6.437667800895270e-04,5.615418168855688e-13
21		1.621810097358929e+00,0.000000000000000e+00
	-6.437667800895269e+00,5.746218060916048e-09
	1.000000000000000e+00,0.000000000000000e+00
	0.000000000000000e+00,0.000000000000000e+00
	6.437667800895270e-04,-5.746218060916049e-13
	4.666061741497736e-22,1.045363324889572e-12
	6.437667781668266e-12,-1.434111474019872e-14
	-6.437667865271948e-04,-4.564004040577688e-13
	-6.437667800895270e-04,5.746218060916048e-13
	-4.666061741497736e-22,-1.045363324889572e-12
	-6.437667800895270e-04,5.746218060916048e-13
22		1.659586907437560e+00,0.000000000000000e+00
	-6.437667800895269e+00,5.880064673852496e-09
	1.000000000000000e+00,0.000000000000000e+00
	0.000000000000000e+00,0.000000000000000e+00
	6.437667800895270e-04,-5.880064673852495e-13
	4.885966456490378e-22,1.069712964746809e-12
	6.437667781668266e-12,-1.467516221513971e-14
	-6.437667865271948e-04,-4.670313351464195e-13
	-6.437667800895270e-04,5.880064673852496e-13
	-4.885966456490378e-22,-1.069712964746809e-12
	-6.437667800895270e-04,5.880064673852496e-13
23		1.698243652461743e+00,0.000000000000000e+00
	-6.437667800895269e+00,6.017028974910877e-09
	1.000000000000000e+00,0.000000000000000e+00
	0.000000000000000e+00,0.000000000000000e+00
	6.437667800895270e-04,-6.017028974910877e-13
	5.116234961410167e-22,1.094629780577279e-12
	6.437667781668266e-12,-1.501699065533553e-14
	-6.437667865271948e-04,-4.779098924308554e-13
	-6.437667800895270e-04,6.017028974910877e-13
	-5.116234961410167e-22,-1.094629780577279e-12
	-6.437667800895270e-04,6.017028974910877e-13
24		1.737800828749374e+00,0.000000000000000e+00
	-6.437667800895269e+00,6.157183584376550e-09
	1.000000000000000e+00,0.000000000000000e+00
	0.000000000000000e+00,0.000000000000000e+00
	6.437667800895270e-04,-6.157183584376550e-13
	5.357355686628678e-22,1.120126983606549e-12
	6.437667781668266e-12,-1.536678130275046e-14
	-6.437667865271948e-04,-4.890418438661433e-13
	-6.437667800895270e-04,6.157183584376550e-13
	-5.357355686628678e-22,-1.120126983606549e-12
	-6.437667800895270e-04,6.157183584376550e-13
25		1.778279410038922e+00,0.000000000000000e+00
	-6.437667800895269e+00,6.300602814078619e-09
	1.000000000000000e+00,0.000000000000000e+00
	0.000000000000000e+00,0.000000000000000e+00
	6.437667800895270e-04,-6.300602814078620e-13
	5.609840081531718e-22,1.146218092789160e-12
	6.437667781668266e-12,-1.572471962101549e-14
	-6.437667865271948e-04,-5.004330917602831e-13
	-6.437667800895270e-04,6.300602814078620e-13
	-5.609840081531718e-22,-1.146218092789160e-12
	-6.437667800895270e-04,6.300602814078620e-13
26		1.819700858609982e+00,0.000000000000000e+00
	-6.437667800895269e+00,6.447362706791049e-09
	1.000000000000000e+00,0.000000000000000e+00
	0.000000000000000e+00,0.000000000000000e+00
	6.437667800895270e-04,-6.447362706791048e-13
	5.874223699372046e-22,1.172916941976559e-12
	6.437667781668266e-12,-1.609099539376484e-14
	-6.437667865271948e-04,-5.120896759036893e-13
	-6.437667800895270e-04,6.447362706791049e-13
	-5.874223699372046e-22,-1.172916941976559e-12
	-6.437667800895270e-04,6.447362706791049e-13
27		1.862087136662866e+00,0.000000000000000e+00
	-6.437667800895269e+00,6.597541076551555e-09
	1.000000000000000e+00,0.000000000000000e+00
	0.000000000000000e+00,0.000000000000000e+00
	6.437667800895270e-04,-6.597541076551554e-13
	6.151067333249633e-22,1.200237687251985e-12
	6.437667781668266e-12,-1.646580282526156e-14
	-6.437667865271948e-04,-5.240177767715678e-13
	-6.437667800895270e-04,6.597541076551555e-13
	-6.151067333249633e-22,-1.200237687251985e-12
	-6.437667800895270e-04,6.597541076551555e-13
28		1.905460717963246e+00,0.000000000000000e+00
	-6.437667800895269e+00,6.751217549919628e-09
	1.000000000000000e+00,0.000000000000000e+00
	0.000000000000000e+00,0.000000000000000e+00
	6.437667800895270e-04,-6.751217549919630e-13
	6.440958205629007e-22,1.228194814436215e-12
	6.437667781668266e-12,-1.684934064336660e-14
	-6.437667865271948e-04,-5.362237188008858e-13
	-6.437667800895270e-04,6.751217549919629e-13
	-6.440958205629007e-22,-1.228194814436215e-12
	-6.437667800895270e-04,6.751217549919629e-13
29		1.949844599758044e+00,0.000000000000000e+00
	-6.437667800895269e+00,6.908473608195598e-09
	1.000000000000000e+00,0.000000000000000e+00
	0.000000000000000e+00,0.000000000000000e+00
	6.437667800895270e-04,-6.908473608195598e-13
	6.744511213916830e-22,1.256803146768140e-12
	6.437667781668266e-12,-1.724181220490844e-14
	-6.437667865271948e-04,-5.487139737436722e-13
	-6.437667800895270e-04,6.908473608195599e-13
	-6.744511213916830e-22,-1.256803146768141e-12
	-6.437667800895270e-04,6.908473608195599e-13
30		1.995262314968878e+00,0.000000000000000e+00
	-6.437667800895269e+00,7.069392630623090e-09
	1.000000000000000e+00,0.000000000000000e+00
	0.000000000000000e+00,0.000000000000000e+00
	6.437667800895270e-04,-7.069392630623091e-13
	7.062370234741737e-22,1.286077852764238e-12
	6.437667781668266e-12,-1.764342560350345e-14
	-6.437667865271948e-04,-5.614951640984254e-13
	-6.437667800895270e-04,7.069392630623090e-13
	-7.062370234741737e-22,-1.286077852764238e-12
	-6.437667800895270e-04,7.069392630623090e-13
31		2.041737944669527e+00,0.000000000000000e+00
	-6.437667800895269e+00,7.234059938597814e-09
	1.000000000000000e+00,0.000000000000000e+00
	0.000000000000000e+00,0.000000000000000e+00
	6.437667800895270e-04,-7.234059938597814e-13
	7.395209489703004e-22,1.316034454261124e-12
	6.437667781668266e-12,-1.805439377989202e-14
	-6.437667865271948e-04,-5.745740666214507e-13
	-6.437667800895270e-04,7.234059938597814e-13
	-7.395209489703004e-22,-1.316034454261124e-12
	-6.437667800895270e-04,7.234059938597814e-13
32		2.089296130854037e+00,0.000000000000000e+00
	-6.437667800895269e+00,7.402562840906086e-09
	1.000000000000000e+00,0.000000000000000e+00
	0.000000000000000e+00,0.000000000000000e+00
	6.437667800895270e-04,-7.402562840906085e-13
	7.743734975484942e-22,1.346688834645435e-12
	6.437667781668266e-12,-1.847493463484078e-14
	-6.437667865271948e-04,-5.879576159199857e-13
	-6.437667800895270e-04,7.402562840906087e-13
	-7.743734975484942e-22,-1.346688834645435e-12
	-6.437667800895270e-04,7.402562840906087e-13
33		2.137962089502230e+00,0.000000000000000e+00
	-6.437667800895269e+00,7.574990680017108e-09
	1.000000000000000e+00,0.000000000000000e+00
	0.000000000000000e+00,0.000000000000000e+00
	6.437667800895270e-04,-7.574990680017109e-13
	8.108685961370514e-22,1.378057247275409e-12
	6.437667781668266e-12,-1.890527114467743e-14
	-6.437667865271948e-04,-6.016529081290205e-13
	-6.437667800895270e-04,7.574990680017109e-13
	-8.108685961370514e-22,-1.378057247275409e-12
	-6.437667800895270e-04,7.574990680017109e-13
34		2.187761623949550e+00,0.000000000000000e+00
	-6.437667800895269e+00,7.751434879453531e-09
	1.000000000000000e+00,0.000000000000000e+00
	0.000000000000000e+00,0.000000000000000e+00
	6.437667800895270e-04,-7.751434879453531e-13
	8.490836557330618e-22,1.410156324098632e-12
	6.437667781668266e-12,-1.934563147951598e-14
	-6.437667865271948e-04,-6.156672046737630e-13
	-6.437667800895270e-04,7.751434879453531e-13
	-8.490836557330618e-22,-1.410156324098632e-12
	-6.437667800895270e-04,7.751434879453531e-13
35		2.238721138568337e+00,0.000000000000000e+00
	-6.437667800895269e+00,7.931988992265411e-09
	1.000000000000000e+00,0.000000000000000e+00
	0.000000000000000e+00,0.000000000000000e+00
	6.437667800895270e-04,-7.931988992265410e-13
	8.890997356015109e-22,1.443003084470518e-12
	6.437667781668266e-12,-1.979624912423468e-14
	-6.437667865271948e-04,-6.300079361197424e-13
	-6.437667800895270e-04,7.931988992265411e-13
	-8.890997356015109e-22,-1.443003084470518e-12
	-6.437667800895270e-04,7.931988992265411e-13
36		2.290867652767770e+00,0.000000000000000e+00
	-6.437667800895269e+00,8.116748750633276e-09
	1.000000000000000e+00,0.000000000000000e+00
	0.000000000000000e+00,0.000000000000000e+00
	6.437667800895270e-04,-8.116748750633275e-13
	9.310017152128488e-22,1.476614944178194e-12
	6.437667781668266e-12,-2.025736300227347e-14
	-6.437667865271948e-04,-6.446827061125934e-13
	-6.437667800895270e-04,8.116748750633276e-13
	-9.310017152128488e-22,-1.476614944178194e-12
	-6.437667800895270e-04,8.116748750633276e-13
37		2.344228815319919e+00,0.000000000000000e+00
	-6.437667800895269e+00,8.305812116626595e-09
	1.000000000000000e+00,0.000000000000000e+00
	0.000000000000000e+00,0.000000000000000e+00
	6.437667800895270e-04,-8.305812116626596e-13
	9.748784742837271e-22,1.511009724674583e-12
	6.437667781668266e-12,-2.072921760231377e-14
	-6.437667865271948e-04,-6.596992954096097e-13
	-6.437667800895270e-04,8.305812116626595e-13
	-9.748784742837271e-22,-1.511009724674583e-12
	-6.437667800895270e-04,8.305812116626595e-13
38		2.398832919019488e+00,0.000000000000000e+00
	-6.437667800895269e+00,8.499279334144572e-09
	1.000000000000000e+00,0.000000000000000e+00
	0.000000000000000e+00,0.000000000000000e+00
	6.437667800895270e-04,-8.499279334144572e-13
	1.020823081302795e-21,1.546205662527572e-12
	6.437667781668266e-12,-2.121206310791055e-14
	-6.437667865271948e-04,-6.750656660052047e-13
	-6.437667800895270e-04,8.499279334144572e-13
	-1.020823081302795e-21,-1.546205662527572e-12
	-6.437667800895270e-04,8.499279334144572e-13
39		2.454708915685027e+00,0.000000000000000e+00
	-6.437667800895269e+00,8.697252982066777e-09
	1.000000000000000e+00,0.000000000000000e+00
	0.000000000000000e+00,0.000000000000000e+00
	6.437667800895270e-04,-8.697252982066778e-13
	1.068932990941442e-21,1.582221419089286e-12
	6.437667781668266e-12,-2.170615553014195e-14
	-6.437667865271948e-04,-6.907899653524660e-13
	-6.437667800895270e-04,8.697252982066778e-13
	-1.068932990941442e-21,-1.582221419089286e-12
	-6.437667800895270e-04,8.697252982066778e-13
40		2.511886431509577e+00,0.000000000000000e+00
	-6.437667800895269e+00,8.899838028641822e-09
	1.000000000000000e+00,0.000000000000000e+00
	0.000000000000000e+00,0.000000000000000e+00
	6.437667800895270e-04,-8.899838028641821e-13
	1.119310250768217e-21,1.619076090390576e-12
	6.437667781668266e-12,-2.221175684335060e-14
	-6.437667865271948e-04,-7.068805306830433e-13
	-6.437667800895270e-04,8.899838028641822e-13
	-1.119310250768217e-21,-1.619076090390576e-12
	-6.437667800895270e-04,8.899838028641822e-13
41		2.570395782768860e+00,0.000000000000000e+00
	-6.437667800895269e+00,9.107141887142937e-09
	1.000000000000000e+00,0.000000000000000e+00
	0.000000000000000e+00,0.000000000000000e+00
	6.437667800895270e-04,-9.107141887142937e-13
	1.172061717705411e-21,1.656789217265997e-12
	6.437667781668266e-12,-2.272913512404461e-14
	-6.437667865271948e-04,-7.233458934276588e-13
	-6.437667800895270e-04,9.107141887142937e-13
	-1.172061717705411e-21,-1.656789217265997e-12
	-6.437667800895270e-04,9.107141887142937e-13
42		2.630267991895378e+00,0.000000000000000e+00
	-6.437667800895269e+00,9.319274472819889e-09
	1.000000000000000e+00,0.000000000000000e+00
	0.000000000000000e+00,0.000000000000000e+00
	6.437667800895270e-04,-9.319274472819889e-13
	1.227299284686910e-21,1.695380795714611e-12
	6.437667781668266e-12,-2.325856469303758e-14
	-6.437667865271948e-04,-7.401947837395844e-13
	-6.437667800895270e-04,9.319274472819889e-13
	-1.227299284686910e-21,-1.695380795714611e-12
	-6.437667800895270e-04,9.319274472819889e-13
43		2.691534803926912e+00,0.000000000000000e+00
	-6.437667800895269e+00,9.536348261177512e-09
	1.000000000000000e+00,0.000000000000000e+00
	0.000000000000000e+00,0.000000000000000e+00
	6.437667800895270e-04,-9.536348261177514e-13
	1.285140117998112e-21,1.734871287502130e-12
	6.437667781668266e-12,-2.380032626089341e-14
	-6.437667865271948e-04,-7.574361351234851e-13
	-6.437667800895270e-04,9.536348261177512e-13
	-1.285140117998112e-21,-1.734871287502130e-12
	-6.437667800895270e-04,9.536348261177512e-13
44		2.754228703338163e+00,0.000000000000000e+00
	-6.437667800895269e+00,9.758478347611704e-09
	1.000000000000000e+00,0.000000000000000e+00
	0.000000000000000e+00,0.000000000000000e+00
	6.437667800895270e-04,-9.758478347611703e-13
	1.345706905801325e-21,1.775281631010019e-12
	6.437667781668266e-12,-2.435470707676791e-14
	-6.437667865271948e-04,-7.750790891720806e-13
	-6.437667800895270e-04,9.758478347611706e-13
	-1.345706905801325e-21,-1.775281631010019e-12
	-6.437667800895270e-04,9.758478347611706e-13
45		2.818382931264450e+00,0.000000000000000e+00
	-6.437667800895269e+00,9.985782508434528e-09
	1.000000000000000e+00,0.000000000000000e+00
	0.000000000000000e+00,0.000000000000000e+00
	6.437667800895270e-04,-9.985782508434528e-13
	1.409128118373809e-21,1.816633252337300e-12
	6.437667781668266e-12,-2.492200108070743e-14
	-6.437667865271948e-04,-7.931330004131398e-13
	-6.437667800895270e-04,9.985782508434530e-13
	-1.409128118373809e-21,-1.816633252337300e-12
	-6.437667800895270e-04,9.985782508434530e-13
46		2.884031503126602e+00,0.000000000000000e+00
	-6.437667800895269e+00,1.021838126332078e-08
	1.000000000000000e+00,0.000000000000000e+00
	0.000000000000000e+00,0.000000000000000e+00
	6.437667800895270e-04,-1.021838126332078e-12
	1.475538280610463e-21,1.858948076660954e-12
	6.437667781668266e-12,-2.550250905950085e-14
	-6.437667865271948e-04,-8.116074412693744e-13
	-6.437667800895270e-04,1.021838126332078e-12
	-1.475538280610463e-21,-1.858948076660954e-12
	-6.437667800895270e-04,1.021838126332078e-12
47		2.951209226666381e+00,0.000000000000000e+00
	-6.437667800895269e+00,1.045639793920912e-08
	1.000000000000000e+00,0.000000000000000e+00
	0.000000000000000e+00,0.000000000000000e+00
	6.437667800895270e-04,-1.045639793920912e-12
	1.545078257369154e-21,1.902248539860940e-12
	6.437667781668266e-12,-2.609653880616371e-14
	-6.437667865271948e-04,-8.305122071338644e-13
	-6.437667800895270e-04,1.045639793920912e-12
	-1.545078257369154e-21,-1.902248539860940e-12
	-6.437667800895270e-04,1.045639793920912e-12
48		3.019951720402012e+00,0.000000000000000e+00
	-6.437667800895269e+00,1.069995873569161e-08
	1.000000000000000e+00,0.000000000000000e+00
	0.000000000000000e+00,0.000000000000000e+00
	6.437667800895270e-04,-1.069995873569161e-12
	1.617895552263977e-21,1.946557600415997e-12
	6.437667781668266e-12,-2.670440528313007e-14
	-6.437667865271948e-04,-8.498573215637058e-13
	-6.437667800895270e-04,1.069995873569161e-12
	-1.617895552263977e-21,-1.946557600415997e-12
	-6.437667800895270e-04,1.069995873569161e-12
49		3.090295432513586e+00,0.000000000000000e+00
	-6.437667800895269e+00,1.094919279192646e-08
	1.000000000000000e+00,0.000000000000000e+00
	0.000000000000000e+00,0.000000000000000e+00
	6.437667800895270e-04,-1.094919279192646e-12
	1.694144620540186e-21,1.991898751576530e-12
	6.437667781668266e-12,-2.732643078925233e-14
	-6.437667865271948e-04,-8.696530415946314e-13
	-6.437667800895270e-04,1.094919279192646e-12
	-1.694144620540186e-21,-1.991898751576530e-12
	-6.437667800895270e-04,1.094919279192646e-12
50		3.162277660168374e+00,0.000000000000000e+00
	-6.437667800895269e+00,1.120423225510929e-08
	1.000000000000000e+00,0.000000000000000e+00
	0.000000000000000e+00,0.000000000000000e+00
	6.437667800895270e-04,-1.120423225510929e-12
	1.773987196694487e-21,2.038296033821046e-12
	6.437667781668266e-12,-2.796294513068672e-14
	-6.437667865271948e-04,-8.899098631794295e-13
	-6.437667800895270e-04,1.120423225510929e-12
	-1.773987196694487e-21,-2.038296033821046e-12
	-6.437667800895270e-04,1.120423225510929e-12
51		3.235936569296277e+00,0.000000000000000e+00
	-6.437667800895269e+00,1.146521235053933e-08
	1.000000000000000e+00,0.000000000000000e+00
	0.000000000000000e+00,0.000000000000000e+00
	6.437667800895270e-04,-1.146521235053933e-12
	1.857592637535584e-21,2.085774047602731e-12
	6.437667781668266e-12,-2.861428579576284e-14
	-6.437667865271948e-04,-9.106385267530348e-13
	-6.437667800895270e-04,1.146521235053933e-12
	-1.857592637535584e-21,-2.085774047602731e-12
	-6.437667800895270e-04,1.146521235053933e-12
52		3.311311214825905e+00,0.000000000000000e+00
	-6.437667800895269e+00,1.173227145331765e-08
	1.000000000000000e+00,0.000000000000000e+00
	0.000000000000000e+00,0.000000000000000e+00
	6.437667800895270e-04,-1.173227145331764e-12
	1.945138281412676e-21,2.134357966392938e-12
	6.437667781668266e-12,-2.928079813392306e-14
	-6.437667865271948e-04,-9.318500229272505e-13
	-6.437667800895270e-04,1.173227145331765e-12
	-1.945138281412676e-21,-2.134357966392938e-12
	-6.437667800895270e-04,1.173227145331765e-12
53		3.388441561392020e+00,0.000000000000000e+00
	-6.437667800895269e+00,1.200555116171549e-08
	1.000000000000000e+00,0.000000000000000e+00
	0.000000000000000e+00,0.000000000000000e+00
	6.437667800895270e-04,-1.200555116171549e-12
	2.036809824373878e-21,2.184073550028495e-12
	6.437667781668266e-12,-2.996283553883073e-14
	-6.437667865271948e-04,-9.535555983181157e-13
	-6.437667800895270e-04,1.200555116171549e-12
	-2.036809824373878e-21,-2.184073550028495e-12
	-6.437667800895270e-04,1.200555116171549e-12
54		3.467368504525310e+00,0.000000000000000e+00
	-6.437667800895269e+00,1.228519637225152e-08
	1.000000000000000e+00,0.000000000000000e+00
	0.000000000000000e+00,0.000000000000000e+00
	6.437667800895270e-04,-1.228519637225152e-12
	2.132801714052426e-21,2.234947158369908e-12
	6.437667781668266e-12,-3.066075963574660e-14
	-6.437667865271948e-04,-9.757667615090091e-13
	-6.437667800895270e-04,1.228519637225152e-12
	-2.132801714052426e-21,-2.234947158369908e-12
	-6.437667800895270e-04,1.228519637225152e-12
55		3.548133892335748e+00,0.000000000000000e+00
	-6.437667800895269e+00,1.257135535651793e-08
	1.000000000000000e+00,0.000000000000000e+00
	0.000000000000000e+00,0.000000000000000e+00
	6.437667800895270e-04,-1.257135535651793e-12
	2.233317562116187e-21,2.287005765277712e-12
	6.437667781668266e-12,-3.137494047326367e-14
	-6.437667865271948e-04,-9.984952891526551e-13
	-6.437667800895270e-04,1.257135535651793e-12
	-2.233317562116187e-21,-2.287005765277712e-12
	-6.437667800895270e-04,1.257135535651793e-12
56		3.630780547701007e+00,0.000000000000000e+00
	-6.437667800895269e+00,1.286417983979592e-08
	1.000000000000000e+00,0.000000000000000e+00
	0.000000000000000e+00,0.000000000000000e+00
	6.437667800895270e-04,-1.286417983979592e-12
	2.338570576155297e-21,2.340276972914366e-12
	6.437667781668266e-12,-3.210575671951681e-14
	-6.437667865271948e-04,-1.021753232215257e-12
	-6.437667800895270e-04,1.286417983979592e-12
	-2.338570576155297e-21,-2.340276972914366e-12
	-6.437667800895270e-04,1.286417983979592e-12
57		3.715352290971718e+00,0.000000000000000e+00
	-6.437667800895269e+00,1.316382508150252e-08
	1.000000000000000e+00,0.000000000000000e+00
	0.000000000000000e+00,0.000000000000000e+00
	6.437667800895270e-04,-1.316382508150251e-12
	2.448784011924052e-21,2.394789026379286e-12
	6.437667781668266e-12,-3.285359586295236e-14
	-6.437667865271948e-04,-1.045552922366083e-12
	-6.437667800895270e-04,1.316382508150252e-12
	-2.448784011924052e-21,-2.394789026379286e-12
	-6.437667800895270e-04,1.316382508150252e-12