Title: * GA CMOS Amp | W=1.8624558124810518e-05 L=8.457369570559086e-07 Vbias=0.7033864136563063
Date: Mon Sep  8 21:04:21 2025
Plotname: Operating Point
Flags: real nocompression
No. Variables: 1
No. Points:            1
Offset:    0.0000000000000000e+00
Command: Linear Technology Corporation LTspice
Variables:
	0	V(out)	voltage
Values:
0		1.790996801070411e+00
