Title: * GA CMOS Amp | W=5e-05 L=1.2681413273066652e-07 Vbias=1.0468082268899068
Date: Sat Sep  6 22:07:31 2025
Plotname: AC Analysis
Flags: complex forward log
No. Variables: 13
No. Points:          901
Offset:    0.0000000000000000e+00
Command: Linear Technology Corporation LTspice
Variables:
	0	frequency	frequency
	1	V(out)	voltage
	2	V(g)	voltage
	3	V(vdd)	voltage
	4	V(m1#dbody)	voltage
	5	V(m1#sbody)	voltage
	6	Id(M1)	device_current
	7	Ig(M1)	device_current
	8	Ib(M1)	device_current
	9	Is(M1)	device_current
	10	I(Rload)	device_current
	11	I(Vg)	device_current
	12	I(Vdd)	device_current
Values:
0		1.000000000000000e+00,0.000000000000000e+00
	-1.296337563417260e-03,2.910965875756055e-11
	1.000000000000000e+00,0.000000000000000e+00
	0.000000000000000e+00,0.000000000000000e+00
	1.027696723305805e-06,6.691287774585537e-15
	1.027696736072862e-06,8.215029084799990e-15
	1.296337563417359e-07,-2.910965875756174e-15
	3.160757719008552e-06,1.907585178310397e-12
	-5.481049254692066e-07,-4.280540959474910e-15
	-2.742286549881081e-06,-1.900393671475166e-12
	-1.296337563417260e-07,2.910965875756055e-15
	-3.160757719011115e-06,-1.907585178310397e-12
	-1.296337563417260e-07,2.910965875756055e-15
1		1.023292992280754e+00,0.000000000000000e+00
	-1.296337563417260e-03,2.978770981429579e-11
	1.000000000000000e+00,0.000000000000000e+00
	0.000000000000000e+00,0.000000000000000e+00
	1.027696723305805e-06,6.847147889067265e-15
	1.027696736072862e-06,8.406381693858409e-15
	1.296337563417359e-07,-2.978770981429915e-15
	3.160757719008552e-06,1.952018545143662e-12
	-5.481049254692066e-07,-4.380247567001412e-15
	-2.742286549881081e-06,-1.944659526595231e-12
	-1.296337563417260e-07,2.978770981429579e-15
	-3.160757719011115e-06,-1.952018545143662e-12
	-1.296337563417260e-07,2.978770981429579e-15
2		1.047128548050899e+00,0.000000000000000e+00
	-1.296337563417260e-03,3.048155470906152e-11
	1.000000000000000e+00,0.000000000000000e+00
	0.000000000000000e+00,0.000000000000000e+00
	1.027696723305805e-06,7.006638451992490e-15
	1.027696736072862e-06,8.602191477762525e-15
	1.296337563417359e-07,-3.048155470906347e-15
	3.160757719008552e-06,1.997486898047582e-12
	-5.481049254692066e-07,-4.482276639767367e-15
	-2.742286549881081e-06,-1.989956465936908e-12
	-1.296337563417260e-07,3.048155470906152e-15
	-3.160757719011115e-06,-1.997486898047582e-12
	-1.296337563417260e-07,3.048155470906152e-15
3		1.071519305237606e+00,0.000000000000000e+00
	-1.296337563417260e-03,3.119156132760508e-11
	1.000000000000000e+00,0.000000000000000e+00
	0.000000000000000e+00,0.000000000000000e+00
	1.027696723305805e-06,7.169844027368785e-15
	1.027696736072862e-06,8.802562257451615e-15
	1.296337563417359e-07,-3.119156132760485e-15
	3.160757719008552e-06,2.044014344944712e-12
	-5.481049254692066e-07,-4.586682274937673e-15
	-2.742286549881081e-06,-2.036308506537013e-12
	-1.296337563417260e-07,3.119156132760508e-15
	-3.160757719011115e-06,-2.044014344944712e-12
	-1.296337563417260e-07,3.119156132760508e-15
4		1.096478196143185e+00,0.000000000000000e+00
	-1.296337563417260e-03,3.191810612483364e-11
	1.000000000000000e+00,0.000000000000000e+00
	0.000000000000000e+00,0.000000000000000e+00
	1.027696723305805e-06,7.336851148952494e-15
	1.027696736072862e-06,9.007600272165290e-15
	1.296337563417359e-07,-3.191810612483445e-15
	3.160757719008552e-06,2.091625555303260e-12
	-5.481049254692066e-07,-4.693519829762067e-15
	-2.742286549881081e-06,-2.083740224861014e-12
	-1.296337563417260e-07,3.191810612483364e-15
	-3.160757719011115e-06,-2.091625555303259e-12
	-1.296337563417260e-07,3.191810612483364e-15
5		1.122018454301963e+00,0.000000000000000e+00
	-1.296337563417260e-03,3.266157432441568e-11
	1.000000000000000e+00,0.000000000000000e+00
	0.000000000000000e+00,0.000000000000000e+00
	1.027696723305805e-06,7.507748366130089e-15
	1.027696736072862e-06,9.217414235772958e-15
	1.296337563417359e-07,-3.266157432441809e-15
	3.160757719008552e-06,2.140345773217166e-12
	-5.481049254692066e-07,-4.802845950926282e-15
	-2.742286549881081e-06,-2.132276769833798e-12
	-1.296337563417260e-07,3.266157432441569e-15
	-3.160757719011115e-06,-2.140345773217167e-12
	-1.296337563417260e-07,3.266157432441569e-15
6		1.148153621496882e+00,0.000000000000000e+00
	-1.296337563417260e-03,3.342236012303158e-11
	1.000000000000000e+00,0.000000000000000e+00
	0.000000000000000e+00,0.000000000000000e+00
	1.027696723305805e-06,7.682626290868200e-15
	1.027696736072862e-06,9.432115394415329e-15
	1.296337563417359e-07,-3.342236012303494e-15
	3.160757719008552e-06,2.190200830790859e-12
	-5.481049254692066e-07,-4.914718604586858e-15
	-2.742286549881081e-06,-2.181943876173968e-12
	-1.296337563417260e-07,3.342236012303158e-15
	-3.160757719011115e-06,-2.190200830790859e-12
	-1.296337563417260e-07,3.342236012303158e-15
7		1.174897554939529e+00,0.000000000000000e+00
	-1.296337563417260e-03,3.420086689938194e-11
	1.000000000000000e+00,0.000000000000000e+00
	0.000000000000000e+00,0.000000000000000e+00
	1.027696723305805e-06,7.861577645757313e-15
	1.027696736072862e-06,9.651817585488627e-15
	1.296337563417359e-07,-3.420086689938199e-15
	3.160757719008552e-06,2.241217161835771e-12
	-5.481049254692066e-07,-5.029197107105579e-15
	-2.742286549881081e-06,-2.232767878038727e-12
	-1.296337563417260e-07,3.420086689938194e-15
	-3.160757719011115e-06,-2.241217161835771e-12
	-1.296337563417260e-07,3.420086689938194e-15
8		1.202264434617413e+00,0.000000000000000e+00
	-1.296337563417260e-03,3.499750742806434e-11
	1.000000000000000e+00,0.000000000000000e+00
	0.000000000000000e+00,0.000000000000000e+00
	1.027696723305805e-06,8.044697313174488e-15
	1.027696736072862e-06,9.876637298002663e-15
	1.296337563417359e-07,-3.499750742806567e-15
	3.160757719008552e-06,2.293421815885906e-12
	-5.481049254692066e-07,-5.146342156499781e-15
	-2.742286549881081e-06,-2.284775722986599e-12
	-1.296337563417260e-07,3.499750742806435e-15
	-3.160757719011115e-06,-2.293421815885905e-12
	-1.296337563417260e-07,3.499750742806435e-15
9		1.230268770812381e+00,0.000000000000000e+00
	-1.296337563417260e-03,3.581270409843188e-11
	1.000000000000000e+00,0.000000000000000e+00
	0.000000000000000e+00,0.000000000000000e+00
	1.027696723305805e-06,8.232082385591261e-15
	1.027696736072862e-06,1.010669373434484e-14
	1.296337563417359e-07,-3.581270409843514e-15
	3.160757719008552e-06,2.346842472539849e-12
	-5.481049254692066e-07,-5.266215864625248e-15
	-2.742286549881081e-06,-2.337994986265380e-12
	-1.296337563417260e-07,3.581270409843188e-15
	-3.160757719011115e-06,-2.346842472539849e-12
	-1.296337563417260e-07,3.581270409843188e-15
10		1.258925411794167e+00,0.000000000000000e+00
	-1.296337563417260e-03,3.664688913854959e-11
	1.000000000000000e+00,0.000000000000000e+00
	0.000000000000000e+00,0.000000000000000e+00
	1.027696723305805e-06,8.423832217053374e-15
	1.027696736072862e-06,1.034210887348289e-14
	1.296337563417359e-07,-3.664688913854914e-15
	3.160757719008552e-06,2.401507456136866e-12
	-5.481049254692066e-07,-5.388881790108751e-15
	-2.742286549881081e-06,-2.392453885432902e-12
	-1.296337563417260e-07,3.664688913854959e-15
	-3.160757719011115e-06,-2.401507456136866e-12
	-1.296337563417260e-07,3.664688913854959e-15
11		1.288249551693134e+00,0.000000000000000e+00
	-1.296337563417260e-03,3.750050484436747e-11
	1.000000000000000e+00,0.000000000000000e+00
	0.000000000000000e+00,0.000000000000000e+00
	1.027696723305805e-06,8.620048475859565e-15
	1.027696736072862e-06,1.058300753563964e-14
	1.296337563417359e-07,-3.750050484437324e-15
	3.160757719008552e-06,2.457445750774836e-12
	-5.481049254692066e-07,-5.514404972047650e-15
	-2.742286549881081e-06,-2.448181295318351e-12
	-1.296337563417260e-07,3.750050484436748e-15
	-3.160757719011115e-06,-2.457445750774836e-12
	-1.296337563417260e-07,3.750050484436748e-15
12		1.318256738556407e+00,0.000000000000000e+00
	-1.296337563417260e-03,3.837400381423171e-11
	1.000000000000000e+00,0.000000000000000e+00
	0.000000000000000e+00,0.000000000000000e+00
	1.027696723305805e-06,8.820835198467488e-15
	1.027696736072862e-06,1.082951744847446e-14
	1.296337563417359e-07,-3.837400381422982e-15
	3.160757719008552e-06,2.514687015678005e-12
	-5.481049254692066e-07,-5.642851964494508e-15
	-2.742286549881081e-06,-2.505206763332088e-12
	-1.296337563417260e-07,3.837400381423171e-15
	-3.160757719011115e-06,-2.514687015678006e-12
	-1.296337563417260e-07,3.837400381423171e-15
13		1.348962882591653e+00,0.000000000000000e+00
	-1.296337563417260e-03,3.926784918885824e-11
	1.000000000000000e+00,0.000000000000000e+00
	0.000000000000000e+00,0.000000000000000e+00
	1.027696723305805e-06,9.026298844655195e-15
	1.027696736072862e-06,1.108176931480607e-14
	1.296337563417359e-07,-3.926784918885819e-15
	3.160757719008552e-06,2.573261600922706e-12
	-5.481049254692066e-07,-5.774290871744916e-15
	-2.742286549881081e-06,-2.563560525132075e-12
	-1.296337563417260e-07,3.926784918885824e-15
	-3.160757719011115e-06,-2.573261600922707e-12
	-1.296337563417260e-07,3.926784918885824e-15
14		1.380384264602885e+00,0.000000000000000e+00
	-1.296337563417260e-03,4.018251489689613e-11
	1.000000000000000e+00,0.000000000000000e+00
	0.000000000000000e+00,0.000000000000000e+00
	1.027696723305805e-06,9.236548353967529e-15
	1.027696736072861e-06,1.133989688191294e-14
	1.296337563417359e-07,-4.018251489689898e-15
	3.160757719008552e-06,2.633200563529360e-12
	-5.481049254692065e-07,-5.908791384447298e-15
	-2.742286549881081e-06,-2.623273520655223e-12
	-1.296337563417260e-07,4.018251489689613e-15
	-3.160757719011115e-06,-2.633200563529360e-12
	-1.296337563417260e-07,4.018251489689613e-15
15		1.412537544622754e+00,0.000000000000000e+00
	-1.296337563417260e-03,4.111848590621083e-11
	1.000000000000000e+00,0.000000000000000e+00
	0.000000000000000e+00,0.000000000000000e+00
	1.027696723305805e-06,9.451695203477311e-15
	1.027696736072861e-06,1.160403701244789e-14
	1.296337563417359e-07,-4.111848590621286e-15
	3.160757719008552e-06,2.694535683929327e-12
	-5.481049254692065e-07,-6.046424816553819e-15
	-2.742286549881081e-06,-2.684377410522152e-12
	-1.296337563417260e-07,4.111848590621083e-15
	-3.160757719011115e-06,-2.694535683929327e-12
	-1.296337563417260e-07,4.111848590621083e-15
16		1.445439770745927e+00,0.000000000000000e+00
	-1.296337563417260e-03,4.207625848102048e-11
	1.000000000000000e+00,0.000000000000000e+00
	0.000000000000000e+00,0.000000000000000e+00
	1.027696723305805e-06,9.671853466891947e-15
	1.027696736072861e-06,1.187432975700442e-14
	1.296337563417359e-07,-4.207625848102144e-15
	3.160757719008552e-06,2.757299482815309e-12
	-5.481049254692065e-07,-6.187264143131966e-15
	-2.742286549881081e-06,-2.746904592824074e-12
	-1.296337563417260e-07,4.207625848102049e-15
	-3.160757719011115e-06,-2.757299482815308e-12
	-1.296337563417260e-07,4.207625848102049e-15
17		1.479108388168207e+00,0.000000000000000e+00
	-1.296337563417260e-03,4.305634044502190e-11
	1.000000000000000e+00,0.000000000000000e+00
	0.000000000000000e+00,0.000000000000000e+00
	1.027696723305805e-06,9.897139875036844e-15
	1.027696736072861e-06,1.215091842837345e-14
	1.296337563417359e-07,-4.305634044502786e-15
	3.160757719008552e-06,2.821525238384253e-12
	-5.481049254692065e-07,-6.331384039056925e-15
	-2.742286549881081e-06,-2.810888220300693e-12
	-1.296337563417260e-07,4.305634044502191e-15
	-3.160757719011115e-06,-2.821525238384253e-12
	-1.296337563417260e-07,4.305634044502191e-15
18		1.513561248436208e+00,0.000000000000000e+00
	-1.296337563417260e-03,4.405925145064532e-11
	1.000000000000000e+00,0.000000000000000e+00
	0.000000000000000e+00,0.000000000000000e+00
	1.027696723305805e-06,1.012767387774762e-14
	1.027696736072861e-06,1.243394967752963e-14
	1.296337563417359e-07,-4.405925145064830e-15
	3.160757719008552e-06,2.887247003981890e-12
	-5.481049254692065e-07,-6.478860918605169e-15
	-2.742286549881081e-06,-2.876362217918220e-12
	-1.296337563417260e-07,4.405925145064532e-15
	-3.160757719011115e-06,-2.887247003981890e-12
	-1.296337563417260e-07,4.405925145064532e-15
19		1.548816618912481e+00,0.000000000000000e+00
	-1.296337563417260e-03,4.508552325458101e-11
	1.000000000000000e+00,0.000000000000000e+00
	0.000000000000000e+00,0.000000000000000e+00
	1.027696723305805e-06,1.036357770720399e-14
	1.027696736072861e-06,1.272357357138761e-14
	1.296337563417359e-07,-4.508552325458469e-15
	3.160757719008552e-06,2.954499626158271e-12
	-5.481049254692065e-07,-6.629772975970317e-15
	-2.742286549881081e-06,-2.943361300856842e-12
	-1.296337563417260e-07,4.508552325458101e-15
	-3.160757719011115e-06,-2.954499626158271e-12
	-1.296337563417260e-07,4.508552325458101e-15
20		1.584893192461113e+00,0.000000000000000e+00
	-1.296337563417260e-03,4.613569999972372e-11
	1.000000000000000e+00,0.000000000000000e+00
	0.000000000000000e+00,0.000000000000000e+00
	1.027696723305805e-06,1.060497644273889e-14
	1.027696736072861e-06,1.301994367236955e-14
	1.296337563417359e-07,-4.613569999972857e-15
	3.160757719008552e-06,3.023318763143866e-12
	-5.481049254692065e-07,-6.784200226722747e-15
	-2.742286549881081e-06,-3.011920992917171e-12
	-1.296337563417260e-07,4.613569999972372e-15
	-3.160757719011115e-06,-3.023318763143867e-12
	-1.296337563417260e-07,4.613569999972372e-15
21		1.621810097358929e+00,0.000000000000000e+00
	-1.296337563417260e-03,4.721033850368447e-11
	1.000000000000000e+00,0.000000000000000e+00
	0.000000000000000e+00,0.000000000000000e+00
	1.027696723305805e-06,1.085199807715719e-14
	1.027696736072861e-06,1.332321711982591e-14
	1.296337563417359e-07,-4.721033850368669e-15
	3.160757719008552e-06,3.093740903756035e-12
	-5.481049254692065e-07,-6.942224550234891e-15
	-2.742286549881081e-06,-3.082077645355431e-12
	-1.296337563417260e-07,4.721033850368447e-15
	-3.160757719011115e-06,-3.093740903756035e-12
	-1.296337563417260e-07,4.721033850368447e-15
22		1.659586907437560e+00,0.000000000000000e+00
	-1.296337563417260e-03,4.831000855402258e-11
	1.000000000000000e+00,0.000000000000000e+00
	0.000000000000000e+00,0.000000000000000e+00
	1.027696723305805e-06,1.110477358459917e-14
	1.027696736072861e-06,1.363355471335283e-14
	1.296337563417359e-07,-4.831000855402761e-15
	3.160757719008552e-06,3.165803386745878e-12
	-5.481049254692065e-07,-7.103929733094774e-15
	-2.742286549881081e-06,-3.153868456157381e-12
	-1.296337563417260e-07,4.831000855402258e-15
	-3.160757719011115e-06,-3.165803386745878e-12
	-1.296337563417260e-07,4.831000855402258e-15
23		1.698243652461743e+00,0.000000000000000e+00
	-1.296337563417260e-03,4.943529321035460e-11
	1.000000000000000e+00,0.000000000000000e+00
	0.000000000000000e+00,0.000000000000000e+00
	1.027696723305805e-06,1.136343698998476e-14
	1.027696736072861e-06,1.395112099805019e-14
	1.296337563417359e-07,-4.943529321035810e-15
	3.160757719008552e-06,3.239544420595735e-12
	-5.481049254692065e-07,-7.269401513530769e-15
	-2.742286549881081e-06,-3.227331489761169e-12
	-1.296337563417260e-07,4.943529321035461e-15
	-3.160757719011115e-06,-3.239544420595735e-12
	-1.296337563417260e-07,4.943529321035461e-15
24		1.737800828749374e+00,0.000000000000000e+00
	-1.296337563417260e-03,5.058678911350019e-11
	1.000000000000000e+00,0.000000000000000e+00
	0.000000000000000e+00,0.000000000000000e+00
	1.027696723305805e-06,1.162812544007531e-14
	1.027696736072861e-06,1.427608435176564e-14
	1.296337563417359e-07,-5.058678911350611e-15
	3.160757719008552e-06,3.315003103777832e-12
	-5.481049254692065e-07,-7.438727626871142e-15
	-2.742286549881081e-06,-3.302505697239610e-12
	-1.296337563417260e-07,5.058678911350019e-15
	-3.160757719011115e-06,-3.315003103777831e-12
	-1.296337563417260e-07,5.058678911350019e-15
25		1.778279410038922e+00,0.000000000000000e+00
	-1.296337563417260e-03,5.176510680182910e-11
	1.000000000000000e+00,0.000000000000000e+00
	0.000000000000000e+00,0.000000000000000e+00
	1.027696723305805e-06,1.189897927619062e-14
	1.027696736072861e-06,1.460861707437071e-14
	1.296337563417359e-07,-5.176510680183256e-15
	3.160757719008552e-06,3.392219445484804e-12
	-5.481049254692065e-07,-7.611997852062483e-15
	-2.742286549881081e-06,-3.379430936952559e-12
	-1.296337563417260e-07,5.176510680182910e-15
	-3.160757719011115e-06,-3.392219445484804e-12
	-1.296337563417260e-07,5.176510680182910e-15
26		1.819700858609982e+00,0.000000000000000e+00
	-1.296337563417260e-03,5.297087103497652e-11
	1.000000000000000e+00,0.000000000000000e+00
	0.000000000000000e+00,0.000000000000000e+00
	1.027696723305805e-06,1.217614210861978e-14
	1.027696736072861e-06,1.494889547911652e-14
	1.296337563417359e-07,-5.297087103497681e-15
	3.160757719008552e-06,3.471234386843105e-12
	-5.481049254692065e-07,-7.789304059271690e-15
	-2.742286549881081e-06,-3.458147995680336e-12
	-1.296337563417260e-07,5.297087103497651e-15
	-3.160757719011115e-06,-3.471234386843105e-12
	-1.296337563417260e-07,5.297087103497651e-15
27		1.862087136662866e+00,0.000000000000000e+00
	-1.296337563417260e-03,5.420472112509904e-11
	1.000000000000000e+00,0.000000000000000e+00
	0.000000000000000e+00,0.000000000000000e+00
	1.027696723305805e-06,1.245976089276523e-14
	1.027696736072861e-06,1.529709998611739e-14
	1.296337563417359e-07,-5.420472112510252e-15
	3.160757719008552e-06,3.552089822620531e-12
	-5.481049254692065e-07,-7.970740258596756e-15
	-2.742286549881081e-06,-3.538698610249424e-12
	-1.296337563417260e-07,5.420472112509904e-15
	-3.160757719011115e-06,-3.552089822620530e-12
	-1.296337563417260e-07,5.420472112509904e-15
28		1.905460717963246e+00,0.000000000000000e+00
	-1.296337563417260e-03,5.546731127584640e-11
	1.000000000000000e+00,0.000000000000000e+00
	0.000000000000000e+00,0.000000000000000e+00
	1.027696723305805e-06,1.274998600706045e-14
	1.027696736072861e-06,1.565341521801193e-14
	1.296337563417359e-07,-5.546731127584987e-15
	3.160757719008552e-06,3.634828623439375e-12
	-5.481049254692065e-07,-8.156402649912142e-15
	-2.742286549881081e-06,-3.621125489661878e-12
	-1.296337563417260e-07,5.546731127584640e-15
	-3.160757719011115e-06,-3.634828623439375e-12
	-1.296337563417260e-07,5.546731127584640e-15
29		1.949844599758044e+00,0.000000000000000e+00
	-1.296337563417260e-03,5.675931092922889e-11
	1.000000000000000e+00,0.000000000000000e+00
	0.000000000000000e+00,0.000000000000000e+00
	1.027696723305805e-06,1.304697133270263e-14
	1.027696736072861e-06,1.601803009785253e-14
	1.296337563417359e-07,-5.675931092922426e-15
	3.160757719008552e-06,3.719494658507013e-12
	-5.481049254692065e-07,-8.346389673875270e-15
	-2.742286549881081e-06,-3.705472337740215e-12
	-1.296337563417260e-07,5.675931092922890e-15
	-3.160757719011115e-06,-3.719494658507013e-12
	-1.296337563417260e-07,5.675931092922890e-15
30		1.995262314968878e+00,0.000000000000000e+00
	-1.296337563417260e-03,5.808140512056433e-11
	1.000000000000000e+00,0.000000000000000e+00
	0.000000000000000e+00,0.000000000000000e+00
	1.027696723305805e-06,1.335087433524249e-14
	1.027696736072861e-06,1.639113794927469e-14
	1.296337563417359e-07,-5.808140512056312e-15
	3.160757719008552e-06,3.806132818875923e-12
	-5.481049254692065e-07,-8.540802064121012e-15
	-2.742286549881081e-06,-3.791783876299745e-12
	-1.296337563417260e-07,5.808140512056434e-15
	-3.160757719011115e-06,-3.806132818875923e-12
	-1.296337563417260e-07,5.808140512056434e-15
31		2.041737944669527e+00,0.000000000000000e+00
	-1.296337563417260e-03,5.943429484169298e-11
	1.000000000000000e+00,0.000000000000000e+00
	0.000000000000000e+00,0.000000000000000e+00
	1.027696723305805e-06,1.366185614807461e-14
	1.027696736072861e-06,1.677293659899992e-14
	1.296337563417359e-07,-5.943429484168952e-15
	3.160757719008552e-06,3.894789041245524e-12
	-5.481049254692065e-07,-8.739742900672029e-15
	-2.742286549881081e-06,-3.880105868860683e-12
	-1.296337563417260e-07,5.943429484169298e-15
	-3.160757719011115e-06,-3.894789041245524e-12
	-1.296337563417260e-07,5.943429484169298e-15
32		2.089296130854037e+00,0.000000000000000e+00
	-1.296337563417260e-03,6.081869741265260e-11
	1.000000000000000e+00,0.000000000000000e+00
	0.000000000000000e+00,0.000000000000000e+00
	1.027696723305805e-06,1.398008165787249e-14
	1.027696736072861e-06,1.716362848172601e-14
	1.296337563417359e-07,-6.081869741266083e-15
	3.160757719008552e-06,3.985510332318422e-12
	-5.481049254692065e-07,-8.943317664593158e-15
	-2.742286549881081e-06,-3.970485144912563e-12
	-1.296337563417260e-07,6.081869741265261e-15
	-3.160757719011115e-06,-3.985510332318423e-12
	-1.296337563417260e-07,6.081869741265261e-15
33		2.137962089502230e+00,0.000000000000000e+00
	-1.296337563417260e-03,6.223534686201102e-11
	1.000000000000000e+00,0.000000000000000e+00
	0.000000000000000e+00,0.000000000000000e+00
	1.027696723305805e-06,1.430571959201362e-14
	1.027696736072861e-06,1.756342074746058e-14
	1.296337563417359e-07,-6.223534686202137e-15
	3.160757719008552e-06,4.078344793723981e-12
	-5.481049254692065e-07,-9.151634293918861e-15
	-2.742286549881081e-06,-4.062969624743860e-12
	-1.296337563417260e-07,6.223534686201102e-15
	-3.160757719011115e-06,-4.078344793723981e-12
	-1.296337563417260e-07,6.223534686201102e-15
34		2.187761623949550e+00,0.000000000000000e+00
	-1.296337563417260e-03,6.368499431605790e-11
	1.000000000000000e+00,0.000000000000000e+00
	0.000000000000000e+00,0.000000000000000e+00
	1.027696723305805e-06,1.463894260804103e-14
	1.027696736072861e-06,1.797252537135482e-14
	1.296337563417359e-07,-6.368499431606199e-15
	3.160757719008552e-06,4.173341647522446e-12
	-5.481049254692065e-07,-9.364803240883397e-15
	-2.742286549881081e-06,-4.157608344849956e-12
	-1.296337563417260e-07,6.368499431605790e-15
	-3.160757719011115e-06,-4.173341647522446e-12
	-1.296337563417260e-07,6.368499431605790e-15
35		2.238721138568337e+00,0.000000000000000e+00
	-1.296337563417260e-03,6.516840839706172e-11
	1.000000000000000e+00,0.000000000000000e+00
	0.000000000000000e+00,0.000000000000000e+00
	1.027696723305805e-06,1.497992738520853e-14
	1.027696736072861e-06,1.839115926609544e-14
	1.296337563417359e-07,-6.516840839706633e-15
	3.160757719008552e-06,4.270551262303137e-12
	-5.481049254692065e-07,-9.582937530484075e-15
	-2.742286549881081e-06,-4.254451483932946e-12
	-1.296337563417260e-07,6.516840839706172e-15
	-3.160757719011115e-06,-4.270551262303136e-12
	-1.296337563417260e-07,6.516840839706172e-15
36		2.290867652767770e+00,0.000000000000000e+00
	-1.296337563417260e-03,6.668637563080350e-11
	1.000000000000000e+00,0.000000000000000e+00
	0.000000000000000e+00,0.000000000000000e+00
	1.027696723305805e-06,1.532885471815845e-14
	1.027696736072861e-06,1.881954439691472e-14
	1.296337563417359e-07,-6.668637563080632e-15
	3.160757719008552e-06,4.370025179890529e-12
	-5.481049254692065e-07,-9.806152820408589e-15
	-2.742286549881081e-06,-4.353550389507039e-12
	-1.296337563417260e-07,6.668637563080350e-15
	-3.160757719011115e-06,-4.370025179890529e-12
	-1.296337563417260e-07,6.668637563080350e-15
37		2.344228815319919e+00,0.000000000000000e+00
	-1.296337563417260e-03,6.823970086360327e-11
	1.000000000000000e+00,0.000000000000000e+00
	0.000000000000000e+00,0.000000000000000e+00
	1.027696723305805e-06,1.568590961278132e-14
	1.027696736072861e-06,1.925790789927936e-14
	1.296337563417359e-07,-6.823970086361003e-15
	3.160757719008552e-06,4.471816142672420e-12
	-5.481049254692065e-07,-1.003456746235826e-14
	-2.742286549881081e-06,-4.454957605123700e-12
	-1.296337563417260e-07,6.823970086360328e-15
	-3.160757719011115e-06,-4.471816142672420e-12
	-1.296337563417260e-07,6.823970086360328e-15
38		2.398832919019488e+00,0.000000000000000e+00
	-1.296337563417260e-03,6.982920768906016e-11
	1.000000000000000e+00,0.000000000000000e+00
	0.000000000000000e+00,0.000000000000000e+00
	1.027696723305805e-06,1.605128138430844e-14
	1.027696736072861e-06,1.970648219932075e-14
	1.296337563417359e-07,-6.982920768906653e-15
	3.160757719008552e-06,4.575978121564640e-12
	-5.481049254692063e-07,-1.026830256479968e-14
	-2.742286549881081e-06,-4.558726898230934e-12
	-1.296337563417260e-07,6.982920768906017e-15
	-3.160757719011115e-06,-4.575978121564640e-12
	-1.296337563417260e-07,6.982920768906017e-15
39		2.454708915685027e+00,0.000000000000000e+00
	-1.296337563417260e-03,7.145573888473260e-11
	1.000000000000000e+00,0.000000000000000e+00
	0.000000000000000e+00,0.000000000000000e+00
	1.027696723305805e-06,1.642516375768934e-14
	1.027696736072861e-06,2.016550513707035e-14
	1.296337563417359e-07,-7.145573888474330e-15
	3.160757719008552e-06,4.682566344627145e-12
	-5.481049254692063e-07,-1.050748205717801e-14
	-2.742286549881081e-06,-4.664913288681493e-12
	-1.296337563417260e-07,7.145573888473261e-15
	-3.160757719011115e-06,-4.682566344627145e-12
	-1.296337563417260e-07,7.145573888473261e-15
40		2.511886431509577e+00,0.000000000000000e+00
	-1.296337563417260e-03,7.312015685899027e-11
	1.000000000000000e+00,0.000000000000000e+00
	0.000000000000000e+00,0.000000000000000e+00
	1.027696723305805e-06,1.680775497030733e-14
	1.027696736072861e-06,2.063522009256564e-14
	1.296337563417359e-07,-7.312015685899707e-15
	3.160757719008552e-06,4.791637326346663e-12
	-5.481049254692063e-07,-1.075223275562602e-14
	-2.742286549881081e-06,-4.773573077905138e-12
	-1.296337563417260e-07,7.312015685899027e-15
	-3.160757719011115e-06,-4.791637326346663e-12
	-1.296337563417260e-07,7.312015685899027e-15
41		2.570395782768860e+00,0.000000000000000e+00
	-1.296337563417260e-03,7.482334410827426e-11
	1.000000000000000e+00,0.000000000000000e+00
	0.000000000000000e+00,0.000000000000000e+00
	1.027696723305805e-06,1.719925787708749e-14
	1.027696736072861e-06,2.111587611489342e-14
	1.296337563417359e-07,-7.482334410827784e-15
	3.160757719008552e-06,4.903248897601429e-12
	-5.481049254692063e-07,-1.100268443020368e-14
	-2.742286549881081e-06,-4.884763878760398e-12
	-1.296337563417260e-07,7.482334410827426e-15
	-3.160757719011115e-06,-4.903248897601429e-12
	-1.296337563417260e-07,7.482334410827426e-15
42		2.630267991895378e+00,0.000000000000000e+00
	-1.296337563417260e-03,7.656620368500850e-11
	1.000000000000000e+00,0.000000000000000e+00
	0.000000000000000e+00,0.000000000000000e+00
	1.027696723305805e-06,1.759988005805320e-14
	1.027696736072861e-06,2.160772805423900e-14
	1.296337563417359e-07,-7.656620368501104e-15
	3.160757719008552e-06,5.017460236323876e-12
	-5.481049254692063e-07,-1.125896987370399e-14
	-2.742286549881081e-06,-4.998544646081671e-12
	-1.296337563417260e-07,7.656620368500850e-15
	-3.160757719011115e-06,-5.017460236323876e-12
	-1.296337563417260e-07,7.656620368500850e-15
43		2.691534803926912e+00,0.000000000000000e+00
	-1.296337563417260e-03,7.834965967641005e-11
	1.000000000000000e+00,0.000000000000000e+00
	0.000000000000000e+00,0.000000000000000e+00
	1.027696723305805e-06,1.800983392838763e-14
	1.027696736072861e-06,2.211103669701103e-14
	1.296337563417359e-07,-7.834965967641309e-15
	3.160757719008552e-06,5.134331898877558e-12
	-5.481049254692063e-07,-1.152122497206142e-14
	-2.742286549881081e-06,-5.114975707937855e-12
	-1.296337563417260e-07,7.834965967641005e-15
	-3.160757719011115e-06,-5.134331898877558e-12
	-1.296337563417260e-07,7.834965967641005e-15
44		2.754228703338163e+00,0.000000000000000e+00
	-1.296337563417260e-03,8.017465769445237e-11
	1.000000000000000e+00,0.000000000000000e+00
	0.000000000000000e+00,0.000000000000000e+00
	1.027696723305805e-06,1.842933685105923e-14
	1.027696736072861e-06,2.262606890411397e-14
	1.296337563417359e-07,-8.017465769445053e-15
	3.160757719008552e-06,5.253925852164943e-12
	-5.481049254692063e-07,-1.178958877640048e-14
	-2.742286549881081e-06,-5.234118797619097e-12
	-1.296337563417260e-07,8.017465769445237e-15
	-3.160757719011115e-06,-5.253925852164943e-12
	-1.296337563417260e-07,8.017465769445237e-15
45		2.818382931264450e+00,0.000000000000000e+00
	-1.296337563417260e-03,8.204216537724135e-11
	1.000000000000000e+00,0.000000000000000e+00
	0.000000000000000e+00,0.000000000000000e+00
	1.027696723305805e-06,1.885861125207037e-14
	1.027696736072861e-06,2.315309775244131e-14
	1.296337563417359e-07,-8.204216537724957e-15
	3.160757719008552e-06,5.376305506483076e-12
	-5.481049254692063e-07,-1.206420357676244e-14
	-2.742286549881081e-06,-5.356037086368589e-12
	-1.296337563417260e-07,8.204216537724135e-15
	-3.160757719011115e-06,-5.376305506483076e-12
	-1.296337563417260e-07,8.204216537724135e-15
46		2.884031503126602e+00,0.000000000000000e+00
	-1.296337563417260e-03,8.395317290206977e-11
	1.000000000000000e+00,0.000000000000000e+00
	0.000000000000000e+00,0.000000000000000e+00
	1.027696723305805e-06,1.929788473839058e-14
	1.027696736072861e-06,2.369240267966447e-14
	1.296337563417359e-07,-8.395317290207738e-15
	3.160757719008552e-06,5.501535749144561e-12
	-5.481049254692063e-07,-1.234521497754941e-14
	-2.742286549881081e-06,-5.480795216876804e-12
	-1.296337563417260e-07,8.395317290206978e-15
	-3.160757719011115e-06,-5.501535749144561e-12
	-1.296337563417260e-07,8.395317290206978e-15
47		2.951209226666381e+00,0.000000000000000e+00
	-1.296337563417260e-03,8.590869351042252e-11
	1.000000000000000e+00,0.000000000000000e+00
	0.000000000000000e+00,0.000000000000000e+00
	1.027696723305805e-06,1.974739021863680e-14
	1.027696736072861e-06,2.424426963239441e-14
	1.296337563417359e-07,-8.590869351043209e-15
	3.160757719008552e-06,5.629682978881678e-12
	-5.481049254692063e-07,-1.263277197472572e-14
	-2.742286549881081e-06,-5.608459337555909e-12
	-1.296337563417260e-07,8.590869351042252e-15
	-3.160757719011115e-06,-5.629682978881679e-12
	-1.296337563417260e-07,8.590869351042252e-15
48		3.019951720402012e+00,0.000000000000000e+00
	-1.296337563417260e-03,8.790976404521048e-11
	1.000000000000000e+00,0.000000000000000e+00
	0.000000000000000e+00,0.000000000000000e+00
	1.027696723305805e-06,2.020736602656454e-14
	1.027696736072861e-06,2.480899121779430e-14
	1.296337563417359e-07,-8.790976404520937e-15
	3.160757719008552e-06,5.760815141051862e-12
	-5.481049254692063e-07,-1.292702703481753e-14
	-2.742286549881081e-06,-5.739097137612524e-12
	-1.296337563417260e-07,8.790976404521048e-15
	-3.160757719011115e-06,-5.760815141051862e-12
	-1.296337563417260e-07,8.790976404521048e-15
49		3.090295432513586e+00,0.000000000000000e+00
	-1.296337563417260e-03,8.995744550051846e-11