Title: * GA CMOS Amp | W=7.497084353499474e-06 L=5.495816954522604e-07 Vbias=0.8793882992492925
Date: Mon Sep  8 18:46:37 2025
Plotname: AC Analysis
Flags: complex forward log
No. Variables: 11
No. Points:          901
Offset:    0.0000000000000000e+00
Command: Linear Technology Corporation LTspice
Variables:
	0	frequency	frequency
	1	V(out)	voltage
	2	V(g)	voltage
	3	V(vdd)	voltage
	4	Id(M1)	device_current
	5	Ig(M1)	device_current
	6	Ib(M1)	device_current
	7	Is(M1)	device_current
	8	I(Rload)	device_current
	9	I(Vg)	device_current
	10	I(Vdd)	device_current
Values:
0		1.000000000000000e+00,0.000000000000000e+00
	-2.850176914386056e+00,3.153226582767240e-10
	1.000000000000000e+00,0.000000000000000e+00
	0.000000000000000e+00,0.000000000000000e+00
	2.850176914386056e-04,-3.153226582767241e-14
	2.970690726590033e-24,6.561292127009397e-14
	2.850176908722468e-12,-9.642632496715852e-16
	-2.850176942887825e-04,-3.311639219274997e-14
	-2.850176914386057e-04,3.153226582767241e-14
	-2.970690726590033e-24,-6.561292127009397e-14
	-2.850176914386057e-04,3.153226582767241e-14
1		1.023292992280754e+00,0.000000000000000e+00
	-2.850176914386056e+00,3.226674665219106e-10
	1.000000000000000e+00,0.000000000000000e+00
	0.000000000000000e+00,0.000000000000000e+00
	2.850176914386056e-04,-3.226674665219107e-14
	3.110695067242493e-24,6.714124253875600e-14
	2.850176908722468e-12,-9.867238261028083e-16
	-2.850176942887825e-04,-3.388777206046212e-14
	-2.850176914386057e-04,3.226674665219107e-14
	-3.110695067242493e-24,-6.714124253875600e-14
	-2.850176914386057e-04,3.226674665219107e-14
2		1.047128548050899e+00,0.000000000000000e+00
	-2.850176914386056e+00,3.301833573288559e-10
	1.000000000000000e+00,0.000000000000000e+00
	0.000000000000000e+00,0.000000000000000e+00
	2.850176914386056e-04,-3.301833573288560e-14
	3.257297609190725e-24,6.870516298293146e-14
	2.850176908722468e-12,-1.009707576567445e-15
	-2.850176942887825e-04,-3.467711967347842e-14
	-2.850176914386057e-04,3.301833573288559e-14
	-3.257297609190725e-24,-6.870516298293146e-14
	-2.850176914386057e-04,3.301833573288559e-14
3		1.071519305237606e+00,0.000000000000000e+00
	-2.850176914386056e+00,3.378743157223504e-10
	1.000000000000000e+00,0.000000000000000e+00
	0.000000000000000e+00,0.000000000000000e+00
	2.850176914386056e-04,-3.378743157223505e-14
	3.410809316081550e-24,7.030551181394084e-14
	2.850176908722468e-12,-1.033226687354256e-15
	-2.850176942887825e-04,-3.548485355435154e-14
	-2.850176914386057e-04,3.378743157223505e-14
	-3.410809316081550e-24,-7.030551181394084e-14
	-2.850176914386057e-04,3.378743157223505e-14
4		1.096478196143185e+00,0.000000000000000e+00
	-2.850176914386056e+00,3.457444195503362e-10
	1.000000000000000e+00,0.000000000000000e+00
	0.000000000000000e+00,0.000000000000000e+00
	2.850176914386056e-04,-3.457444195503362e-14
	3.571555806826954e-24,7.194313755791742e-14
	2.850176908722468e-12,-1.057293628607074e-15
	-2.850176942887825e-04,-3.631140197427673e-14
	-2.850176914386057e-04,3.457444195503362e-14
	-3.571555806826954e-24,-7.194313755791742e-14
	-2.850176914386057e-04,3.457444195503362e-14
5		1.122018454301963e+00,0.000000000000000e+00
	-2.850176914386056e+00,3.537978416460360e-10
	1.000000000000000e+00,0.000000000000000e+00
	0.000000000000000e+00,0.000000000000000e+00
	2.850176914386056e-04,-3.537978416460361e-14
	3.739878046285468e-24,7.361890850570724e-14
	2.850176908722468e-12,-1.081921160936707e-15
	-2.850176942887825e-04,-3.715720318016692e-14
	-2.850176914386057e-04,3.537978416460360e-14
	-3.739878046285468e-24,-7.361890850570724e-14
	-2.850176914386057e-04,3.537978416460360e-14
6		1.148153621496882e+00,0.000000000000000e+00
	-2.850176914386056e+00,3.620388520404446e-10
	1.000000000000000e+00,0.000000000000000e+00
	0.000000000000000e+00,0.000000000000000e+00
	2.850176914386056e-04,-3.620388520404447e-14
	3.916133068494337e-24,7.533371317324822e-14
	2.850176908722468e-12,-1.107122342186790e-15
	-2.850176942887825e-04,-3.802270562701696e-14
	-2.850176914386057e-04,3.620388520404446e-14
	-3.916133068494337e-24,-7.533371317324822e-14
	-2.850176914386057e-04,3.620388520404446e-14
7		1.174897554939529e+00,0.000000000000000e+00
	-2.850176914386056e+00,3.704718202263558e-10
	1.000000000000000e+00,0.000000000000000e+00
	0.000000000000000e+00,0.000000000000000e+00
	2.850176914386056e-04,-3.704718202263557e-14
	4.100694733986589e-24,7.708846077267322e-14
	2.850176908722468e-12,-1.132910534357190e-15
	-2.850176942887825e-04,-3.890836821568045e-14
	-2.850176914386057e-04,3.704718202263557e-14
	-4.100694733986589e-24,-7.708846077267322e-14
	-2.850176914386057e-04,3.704718202263557e-14
8		1.202264434617413e+00,0.000000000000000e+00
	-2.850176914386056e+00,3.791012174751252e-10
	1.000000000000000e+00,0.000000000000000e+00
	0.000000000000000e+00,0.000000000000000e+00
	2.850176914386056e-04,-3.791012174751252e-14
	4.293954522799347e-24,7.888408169438632e-14
	2.850176908722468e-12,-1.159299410688767e-15
	-2.850176942887825e-04,-3.981466053618504e-14
	-2.850176914386057e-04,3.791012174751252e-14
	-4.293954522799347e-24,-7.888408169438632e-14
	-2.850176914386057e-04,3.791012174751252e-14
9		1.230268770812381e+00,0.000000000000000e+00
	-2.850176914386056e+00,3.879316192073978e-10
	1.000000000000000e+00,0.000000000000000e+00
	0.000000000000000e+00,0.000000000000000e+00
	2.850176914386056e-04,-3.879316192073977e-14
	4.496322364855472e-24,8.072152800036804e-14
	2.850176908722468e-12,-1.186302962913026e-15
	-2.850176942887825e-04,-4.074206311671524e-14
	-2.850176914386057e-04,3.879316192073978e-14
	-4.496322364855472e-24,-8.072152800036804e-14
	-2.850176914386057e-04,3.879316192073978e-14
10		1.258925411794167e+00,0.000000000000000e+00
	-2.850176914386056e+00,3.969677074190561e-10
	1.000000000000000e+00,0.000000000000000e+00
	0.000000000000000e+00,0.000000000000000e+00
	2.850176914386056e-04,-3.969677074190562e-14
	4.708227509479898e-24,8.260177392897128e-14
	2.850176908722468e-12,-1.213935508670784e-15
	-2.850176942887825e-04,-4.169106767839488e-14
	-2.850176914386057e-04,3.969677074190562e-14
	-4.708227509479898e-24,-8.260177392897128e-14
	-2.850176914386057e-04,3.969677074190562e-14
11		1.288249551693134e+00,0.000000000000000e+00
	-2.850176914386056e+00,4.062142731636770e-10
	1.000000000000000e+00,0.000000000000000e+00
	0.000000000000000e+00,0.000000000000000e+00
	2.850176914386056e-04,-4.062142731636770e-14
	4.930119435894990e-24,8.452581641147543e-14
	2.850176908722468e-12,-1.242211699103582e-15
	-2.850176942887825e-04,-4.266217739600415e-14
	-2.850176914386057e-04,4.062142731636770e-14
	-4.930119435894990e-24,-8.452581641147543e-14
	-2.850176914386057e-04,4.062142731636770e-14
12		1.318256738556407e+00,0.000000000000000e+00
	-2.850176914386056e+00,4.156762190928106e-10
	1.000000000000000e+00,0.000000000000000e+00
	0.000000000000000e+00,0.000000000000000e+00
	2.850176914386056e-04,-4.156762190928106e-14
	5.162468806626241e-24,8.649467560067236e-14
	2.850176908722468e-12,-1.271146526621868e-15
	-2.850176942887825e-04,-4.365590716476943e-14
	-2.850176914386057e-04,4.156762190928106e-14
	-5.162468806626241e-24,-8.649467560067236e-14
	-2.850176914386057e-04,4.156762190928106e-14
13		1.348962882591653e+00,0.000000000000000e+00
	-2.850176914386056e+00,4.253585620554325e-10
	1.000000000000000e+00,0.000000000000000e+00
	0.000000000000000e+00,0.000000000000000e+00
	2.850176914386056e-04,-4.253585620554325e-14
	5.405768465840594e-24,8.850939541176515e-14
	2.850176908722468e-12,-1.300755332854180e-15
	-2.850176942887825e-04,-4.467278387336772e-14
	-2.850176914386057e-04,4.253585620554325e-14
	-5.405768465840594e-24,-8.850939541176515e-14
	-2.850176914386057e-04,4.253585620554325e-14
14		1.380384264602885e+00,0.000000000000000e+00
	-2.850176914386056e+00,4.352664357579424e-10
	1.000000000000000e+00,0.000000000000000e+00
	0.000000000000000e+00,0.000000000000000e+00
	2.850176914386056e-04,-4.352664357579424e-14
	5.660534484735001e-24,9.057104407586562e-14
	2.850176908722468e-12,-1.331053816781506e-15
	-2.850176942887825e-04,-4.571334668328988e-14
	-2.850176914386057e-04,4.352664357579424e-14
	-5.660534484735001e-24,-9.057104407586562e-14
	-2.850176914386057e-04,4.352664357579424e-14
15		1.412537544622754e+00,0.000000000000000e+00
	-2.850176914386056e+00,4.454050934861234e-10
	1.000000000000000e+00,0.000000000000000e+00
	0.000000000000000e+00,0.000000000000000e+00
	2.850176914386056e-04,-4.454050934861235e-14
	5.927307256192608e-24,9.268071470638460e-14
	2.850176908722468e-12,-1.362058043061066e-15
	-2.850176942887825e-04,-4.677814731471118e-14
	-2.850176914386057e-04,4.454050934861235e-14
	-5.927307256192608e-24,-9.268071470638460e-14
	-2.850176914386057e-04,4.454050934861235e-14
16		1.445439770745927e+00,0.000000000000000e+00
	-2.850176914386056e+00,4.557799108905042e-10
	1.000000000000000e+00,0.000000000000000e+00
	0.000000000000000e+00,0.000000000000000e+00
	2.850176914386056e-04,-4.557799108905043e-14
	6.206652641028525e-24,9.483952587861517e-14
	2.850176908722468e-12,-1.393784450544017e-15
	-2.850176942887825e-04,-4.786775033902072e-14
	-2.850176914386057e-04,4.557799108905043e-14
	-6.206652641028525e-24,-9.483952587861517e-14
	-2.850176914386057e-04,4.557799108905043e-14
17		1.479108388168207e+00,0.000000000000000e+00
	-2.850176914386056e+00,4.663963888365995e-10
	1.000000000000000e+00,0.000000000000000e+00
	0.000000000000000e+00,0.000000000000000e+00
	2.850176914386056e-04,-4.663963888365995e-14
	6.499163168256479e-24,9.704862222281613e-14
	2.850176908722468e-12,-1.426249860991582e-15
	-2.850176942887825e-04,-4.898273347816460e-14
	-2.850176914386057e-04,4.663963888365995e-14
	-6.499163168256479e-24,-9.704862222281613e-14
	-2.850176914386057e-04,4.663963888365995e-14
18		1.513561248436208e+00,0.000000000000000e+00
	-2.850176914386056e+00,4.772601563215421e-10
	1.000000000000000e+00,0.000000000000000e+00
	0.000000000000000e+00,0.000000000000000e+00
	2.850176914386056e-04,-4.772601563215421e-14
	6.805459291922294e-24,9.930917503111001e-14
	2.850176908722468e-12,-1.459471487994078e-15
	-2.850176942887825e-04,-5.012368791096172e-14
	-2.850176914386057e-04,4.772601563215422e-14
	-6.805459291922294e-24,-9.930917503111001e-14
	-2.850176914386057e-04,4.772601563215422e-14
19		1.548816618912481e+00,0.000000000000000e+00
	-2.850176914386056e+00,4.883769734586513e-10
	1.000000000000000e+00,0.000000000000000e+00
	0.000000000000000e+00,0.000000000000000e+00
	2.850176914386056e-04,-4.883769734586512e-14
	7.126190707170093e-24,1.016223828785177e-13
	2.850176908722468e-12,-1.493466946097913e-15
	-2.850176942887825e-04,-5.129121858655468e-14
	-2.850176914386057e-04,4.883769734586513e-14
	-7.126190707170093e-24,-1.016223828785177e-13
	-2.850176914386057e-04,4.883769734586513e-14
20		1.584893192461113e+00,0.000000000000000e+00
	-2.850176914386056e+00,4.997527345315216e-10
	1.000000000000000e+00,0.000000000000000e+00
	0.000000000000000e+00,0.000000000000000e+00
	2.850176914386056e-04,-4.997527345315218e-14
	7.462037728332831e-24,1.039894722584589e-13
	2.850176908722468e-12,-1.528254260144926e-15
	-2.850176942887825e-04,-5.248594454516176e-14
	-2.850176914386057e-04,4.997527345315216e-14
	-7.462037728332831e-24,-1.039894722584589e-13
	-2.850176914386057e-04,4.997527345315216e-14
21		1.621810097358929e+00,0.000000000000000e+00
	-2.850176914386056e+00,5.113934711192502e-10
	1.000000000000000e+00,0.000000000000000e+00
	0.000000000000000e+00,0.000000000000000e+00
	2.850176914386056e-04,-5.113934711192502e-14
	7.813712731970189e-24,1.064116982330548e-13
	2.850176908722468e-12,-1.563851874829511e-15
	-2.850176942887825e-04,-5.370849924630031e-14
	-2.850176914386057e-04,5.113934711192503e-14
	-7.813712731970189e-24,-1.064116982330548e-13
	-2.850176914386057e-04,5.113934711192503e-14
22		1.659586907437560e+00,0.000000000000000e+00
	-2.850176914386056e+00,5.233053552944589e-10
	1.000000000000000e+00,0.000000000000000e+00
	0.000000000000000e+00,0.000000000000000e+00
	2.850176914386056e-04,-5.233053552944590e-14
	8.181961667914773e-24,1.088903450985793e-13
	2.850176908722468e-12,-1.600278664478153e-15
	-2.850176942887825e-04,-5.495953090465528e-14
	-2.850176914386057e-04,5.233053552944590e-14
	-8.181961667914773e-24,-1.088903450985793e-13
	-2.850176914386057e-04,5.233053552944590e-14
23		1.698243652461743e+00,0.000000000000000e+00
	-2.850176914386056e+00,5.354947028958100e-10
	1.000000000000000e+00,0.000000000000000e+00
	0.000000000000000e+00,0.000000000000000e+00
	2.850176914386056e-04,-5.354947028958100e-14
	8.567565641531712e-24,1.114267270664092e-13
	2.850176908722468e-12,-1.637553943056913e-15
	-2.850176942887825e-04,-5.623970283377127e-14
	-2.850176914386057e-04,5.354947028958101e-14
	-8.567565641531712e-24,-1.114267270664092e-13
	-2.850176914386057e-04,5.354947028958101e-14
24		1.737800828749374e+00,0.000000000000000e+00
	-2.850176914386056e+00,5.479679768767469e-10
	1.000000000000000e+00,0.000000000000000e+00
	0.000000000000000e+00,0.000000000000000e+00
	2.850176914386056e-04,-5.479679768767469e-14
	8.971342570547874e-24,1.140221889598367e-13
	2.850176908722468e-12,-1.675697474411839e-15
	-2.850176942887825e-04,-5.754969379775021e-14
	-2.850176914386057e-04,5.479679768767469e-14
	-8.971342570547874e-24,-1.140221889598367e-13
	-2.850176914386057e-04,5.479679768767469e-14
25		1.778279410038922e+00,0.000000000000000e+00
	-2.850176914386056e+00,5.607317907322373e-10
	1.000000000000000e+00,0.000000000000000e+00
	0.000000000000000e+00,0.000000000000000e+00
	2.850176914386056e-04,-5.607317907322374e-14
	9.394148919965018e-24,1.166781069271129e-13
	2.850176908722468e-12,-1.714729482748190e-15
	-2.850176942887825e-04,-5.889019837114096e-14
	-2.850176914386057e-04,5.607317907322374e-14
	-9.394148919965018e-24,-1.166781069271129e-13
	-2.850176914386057e-04,5.607317907322374e-14
26		1.819700858609982e+00,0.000000000000000e+00
	-2.850176914386056e+00,5.737929120053367e-10
	1.000000000000000e+00,0.000000000000000e+00
	0.000000000000000e+00,0.000000000000000e+00
	2.850176914386056e-04,-5.737929120053367e-14
	9.836881518736893e-24,1.193958891710991e-13
	2.850176908722468e-12,-1.754670663353436e-15
	-2.850176942887825e-04,-6.026192730721203e-14
	-2.850176914386057e-04,5.737929120053368e-14
	-9.836881518736893e-24,-1.193958891710991e-13
	-2.850176914386057e-04,5.737929120053368e-14
27		1.862087136662866e+00,0.000000000000000e+00
	-2.850176914386056e+00,5.871582658754285e-10
	1.000000000000000e+00,0.000000000000000e+00
	0.000000000000000e+00,0.000000000000000e+00
	2.850176914386056e-04,-5.871582658754285e-14
	1.030047946206369e-23,1.221769766959153e-13
	2.850176908722468e-12,-1.795542193570194e-15
	-2.850176942887825e-04,-6.166560791480228e-14
	-2.850176914386057e-04,5.871582658754285e-14
	-1.030047946206369e-23,-1.221769766959153e-13
	-2.850176914386057e-04,5.871582658754285e-14
28		1.905460717963246e+00,0.000000000000000e+00
	-2.850176914386056e+00,6.008349388300456e-10
	1.000000000000000e+00,0.000000000000000e+00
	0.000000000000000e+00,0.000000000000000e+00
	2.850176914386056e-04,-6.008349388300458e-14
	1.078592610333886e-23,1.250228440709792e-13
	2.850176908722468e-12,-1.837365744024799e-15
	-2.850176942887825e-04,-6.310198444394978e-14
	-2.850176914386057e-04,6.008349388300457e-14
	-1.078592610333886e-23,-1.250228440709792e-13
	-2.850176914386057e-04,6.008349388300457e-14
29		1.949844599758044e+00,0.000000000000000e+00
	-2.850176914386056e+00,6.148301824222214e-10
	1.000000000000000e+00,0.000000000000000e+00
	0.000000000000000e+00,0.000000000000000e+00
	2.850176914386056e-04,-6.148301824222215e-14
	1.129425113997352e-23,1.279350002128424e-13
	2.850176908722468e-12,-1.880163490117276e-15
	-2.850176942887825e-04,-6.457181848050297e-14
	-2.850176914386057e-04,6.148301824222215e-14
	-1.129425113997352e-23,-1.279350002128424e-13
	-2.850176914386057e-04,6.148301824222215e-14
30		1.995262314968878e+00,0.000000000000000e+00
	-2.850176914386056e+00,6.291514171153568e-10
	1.000000000000000e+00,0.000000000000000e+00
	0.000000000000000e+00,0.000000000000000e+00
	2.850176914386056e-04,-6.291514171153568e-14
	1.182653279752269e-23,1.309149891852384e-13
	2.850176908722468e-12,-1.923958123779142e-15
	-2.850176942887825e-04,-6.607588934992357e-14
	-2.850176914386057e-04,6.291514171153568e-14
	-1.182653279752269e-23,-1.309149891852384e-13
	-2.850176914386057e-04,6.291514171153568e-14
31		2.041737944669527e+00,0.000000000000000e+00
	-2.850176914386056e+00,6.438062362176503e-10
	1.000000000000000e+00,0.000000000000000e+00
	0.000000000000000e+00,0.000000000000000e+00
	2.850176914386056e-04,-6.438062362176504e-14
	1.238390011674627e-23,1.339643910177652e-13
	2.850176908722468e-12,-1.968772865504823e-15
	-2.850176942887825e-04,-6.761499453049530e-14
	-2.850176914386057e-04,6.438062362176504e-14
	-1.238390011674627e-23,-1.339643910177652e-13
	-2.850176914386057e-04,6.438062362176504e-14
32		2.089296130854037e+00,0.000000000000000e+00
	-2.850176914386056e+00,6.588024099081695e-10
	1.000000000000000e+00,0.000000000000000e+00
	0.000000000000000e+00,0.000000000000000e+00
	2.850176914386056e-04,-6.588024099081695e-14
	1.296753534845589e-23,1.370848225436379e-13
	2.850176908722468e-12,-2.014631476663599e-15
	-2.850176942887825e-04,-6.918995007615737e-14
	-2.850176914386057e-04,6.588024099081696e-14
	-1.296753534845589e-23,-1.370848225436379e-13
	-2.850176914386057e-04,6.588024099081696e-14
33		2.137962089502230e+00,0.000000000000000e+00
	-2.850176914386056e+00,6.741478893567026e-10
	1.000000000000000e+00,0.000000000000000e+00
	0.000000000000000e+00,0.000000000000000e+00
	2.850176914386056e-04,-6.741478893567026e-14
	1.357867646122733e-23,1.402779382569554e-13
	2.850176908722468e-12,-2.061558272098059e-15
	-2.850176942887825e-04,-7.080159104918706e-14
	-2.850176914386057e-04,6.741478893567026e-14
	-1.357867646122733e-23,-1.402779382569554e-13
	-2.850176914386057e-04,6.741478893567026e-14
34		2.187761623949550e+00,0.000000000000000e+00
	-2.850176914386056e+00,6.898508109395750e-10
	1.000000000000000e+00,0.000000000000000e+00
	0.000000000000000e+00,0.000000000000000e+00
	2.850176914386056e-04,-6.898508109395749e-14
	1.421861976729790e-23,1.435454311899348e-13
	2.850176908722468e-12,-2.109578133016391e-15
	-2.850176942887825e-04,-7.245077196296088e-14
	-2.850176914386057e-04,6.898508109395750e-14
	-1.421861976729790e-23,-1.435454311899348e-13
	-2.850176914386057e-04,6.898508109395750e-14
35		2.238721138568337e+00,0.000000000000000e+00
	-2.850176914386056e+00,7.059195005536624e-10
	1.000000000000000e+00,0.000000000000000e+00
	0.000000000000000e+00,0.000000000000000e+00
	2.850176914386056e-04,-7.059195005536623e-14
	1.488872267221847e-23,1.468890338105794e-13
	2.850176908722468e-12,-2.158716520184389e-15
	-2.850176942887825e-04,-7.413836723502881e-14
	-2.850176914386057e-04,7.059195005536624e-14
	-1.488872267221847e-23,-1.468890338105794e-13
	-2.850176914386057e-04,7.059195005536624e-14
36		2.290867652767770e+00,0.000000000000000e+00
	-2.850176914386056e+00,7.223624780308927e-10
	1.000000000000000e+00,0.000000000000000e+00
	0.000000000000000e+00,0.000000000000000e+00
	2.850176914386056e-04,-7.223624780308926e-14
	1.559040655409263e-23,1.503105189412567e-13
	2.850176908722468e-12,-2.208999487425372e-15
	-2.850176942887825e-04,-7.586527165074205e-14
	-2.850176914386057e-04,7.223624780308927e-14
	-1.559040655409263e-23,-1.503105189412567e-13
	-2.850176914386057e-04,7.223624780308927e-14
37		2.344228815319919e+00,0.000000000000000e+00
	-2.850176914386056e+00,7.391884616555726e-10
	1.000000000000000e+00,0.000000000000000e+00
	0.000000000000000e+00,0.000000000000000e+00
	2.850176914386056e-04,-7.391884616555727e-14
	1.632515977851024e-23,1.538117006986715e-13
	2.850176908722468e-12,-2.260453695434147e-15
	-2.850176942887825e-04,-7.763240083768009e-14
	-2.850176914386057e-04,7.391884616555726e-14
	-1.632515977851024e-23,-1.538117006986715e-13
	-2.850176914386057e-04,7.391884616555726e-14
38		2.398832919019488e+00,0.000000000000000e+00
	-2.850176914386056e+00,7.564063727869383e-10
	1.000000000000000e+00,0.000000000000000e+00
	0.000000000000000e+00,0.000000000000000e+00
	2.850176914386056e-04,-7.564063727869384e-14
	1.709454085557037e-23,1.573944354557353e-13
	2.850176908722468e-12,-2.313106425912920e-15
	-2.850176942887825e-04,-7.944069175112857e-14
	-2.850176914386057e-04,7.564063727869383e-14
	-1.709454085557037e-23,-1.573944354557353e-13
	-2.850176914386057e-04,7.564063727869383e-14
39		2.454708915685027e+00,0.000000000000000e+00
	-2.850176914386056e+00,7.740253405893778e-10
	1.000000000000000e+00,0.000000000000000e+00
	0.000000000000000e+00,0.000000000000000e+00
	2.850176914386056e-04,-7.740253405893777e-14
	1.790018174569019e-23,1.610606228258394e-13
	2.850176908722468e-12,-2.366985596036277e-15
	-2.850176942887825e-04,-8.129110317086538e-14
	-2.850176914386057e-04,7.740253405893778e-14
	-1.790018174569019e-23,-1.610606228258394e-13
	-2.850176914386057e-04,7.740253405893778e-14
40		2.511886431509577e+00,0.000000000000000e+00
	-2.850176914386056e+00,7.920547068728341e-10
	1.000000000000000e+00,0.000000000000000e+00
	0.000000000000000e+00,0.000000000000000e+00
	2.850176914386056e-04,-7.920547068728341e-14
	1.874379132121178e-23,1.648122066700551e-13
	2.850176908722468e-12,-2.422119773253407e-15
	-2.850176942887825e-04,-8.318461620951833e-14
	-2.850176914386057e-04,7.920547068728342e-14
	-1.874379132121178e-23,-1.648122066700551e-13
	-2.850176914386057e-04,7.920547068728342e-14
41		2.570395782768860e+00,0.000000000000000e+00
	-2.850176914386056e+00,8.105040310459579e-10
	1.000000000000000e+00,0.000000000000000e+00
	0.000000000000000e+00,0.000000000000000e+00
	2.850176914386056e-04,-8.105040310459580e-14
	1.962715899114954e-23,1.686511761277948e-13
	2.850176908722468e-12,-2.478538190434838e-15
	-2.850176942887825e-04,-8.512223483276413e-14
	-2.850176914386057e-04,8.105040310459579e-14
	-1.962715899114954e-23,-1.686511761277948e-13
	-2.850176914386057e-04,8.105040310459579e-14
42		2.630267991895378e+00,0.000000000000000e+00
	-2.850176914386056e+00,8.293830951846315e-10
	1.000000000000000e+00,0.000000000000000e+00
	0.000000000000000e+00,0.000000000000000e+00
	2.850176914386056e-04,-8.293830951846316e-14
	2.055215849676657e-23,1.725795666714796e-13
	2.850176908722468e-12,-2.536270761372205e-15
	-2.850176942887825e-04,-8.710498639164425e-14
	-2.850176914386057e-04,8.293830951846315e-14
	-2.055215849676657e-23,-1.725795666714796e-13
	-2.850176914386057e-04,8.293830951846315e-14
43		2.691534803926912e+00,0.000000000000000e+00
	-2.850176914386056e+00,8.487019092185550e-10
	1.000000000000000e+00,0.000000000000000e+00
	0.000000000000000e+00,0.000000000000000e+00
	2.850176914386056e-04,-8.487019092185553e-14
	2.152075188603114e-23,1.765994611857743e-13
	2.850176908722468e-12,-2.595348096638731e-15
	-2.850176942887825e-04,-8.913392216728002e-14
	-2.850176914386057e-04,8.487019092185551e-14
	-2.152075188603114e-23,-1.765994611857743e-13
	-2.850176914386057e-04,8.487019092185551e-14
44		2.754228703338163e+00,0.000000000000000e+00
	-2.850176914386056e+00,8.684707162386442e-10
	1.000000000000000e+00,0.000000000000000e+00
	0.000000000000000e+00,0.000000000000000e+00
	2.850176914386056e-04,-8.684707162386442e-14
	2.253499367538344e-23,1.807129910719598e-13
	2.850176908722468e-12,-2.655801519819619e-15
	-2.850176942887825e-04,-9.121011792827580e-14
	-2.850176914386057e-04,8.684707162386443e-14
	-2.253499367538344e-23,-1.807129910719598e-13
	-2.850176914386057e-04,8.684707162386443e-14
45		2.818382931264450e+00,0.000000000000000e+00
	-2.850176914386056e+00,8.886999979280520e-10
	1.000000000000000e+00,0.000000000000000e+00
	0.000000000000000e+00,0.000000000000000e+00
	2.850176914386056e-04,-8.886999979280520e-14
	2.359703520764047e-23,1.849223373780310e-13
	2.850176908722468e-12,-2.717663084119985e-15
	-2.850176942887825e-04,-9.333467450110581e-14
	-2.850176914386057e-04,8.886999979280521e-14
	-2.359703520764047e-23,-1.849223373780310e-13
	-2.850176914386057e-04,8.886999979280521e-14
46		2.884031503126602e+00,0.000000000000000e+00
	-2.850176914386056e+00,9.094004801196962e-10
	1.000000000000000e+00,0.000000000000000e+00
	0.000000000000000e+00,0.000000000000000e+00
	2.850176914386056e-04,-9.094004801196961e-14
	2.470912921528251e-23,1.892297319551164e-13
	2.850176908722468e-12,-2.780965589360076e-15
	-2.850176942887825e-04,-9.550871835378674e-14
	-2.850176914386057e-04,9.094004801196963e-14
	-2.470912921528251e-23,-1.892297319551164e-13
	-2.850176914386057e-04,9.094004801196963e-14
47		2.951209226666381e+00,0.000000000000000e+00
	-2.850176914386056e+00,9.305831384832384e-10
	1.000000000000000e+00,0.000000000000000e+00
	0.000000000000000e+00,0.000000000000000e+00
	2.850176914386056e-04,-9.305831384832384e-14
	2.587363459880085e-23,1.936374586408362e-13
	2.850176908722468e-12,-2.845742599366082e-15
	-2.850176942887825e-04,-9.773340219314623e-14
	-2.850176914386057e-04,9.305831384832384e-14
	-2.587363459880085e-23,-1.936374586408362e-13
	-2.850176914386057e-04,9.305831384832384e-14
48		3.019951720402012e+00,0.000000000000000e+00
	-2.850176914386056e+00,9.522592043445283e-10
	1.000000000000000e+00,0.000000000000000e+00
	0.000000000000000e+00,0.000000000000000e+00
	2.850176914386056e-04,-9.522592043445287e-14
	2.709302143024185e-23,1.981478544702220e-13
	2.850176908722468e-12,-2.912028459766107e-15
	-2.850176942887825e-04,-1.000099055760030e-13
	-2.850176914386057e-04,9.522592043445283e-14
	-2.709302143024185e-23,-1.981478544702220e-13
	-2.850176914386057e-04,9.522592043445283e-14
49		3.090295432513586e+00,0.000000000000000e+00
	-2.850176914386056e+00,9.744401706406023e-10
	1.000000000000000e+00,0.000000000000000e+00
	0.000000000000000e+00,0.000000000000000e+00
	2.850176914386056e-04,-9.744401706406027e-14
	2.836987619256104e-23,2.027633109148449e-13
	2.850176908722468e-12,-2.979858316200786e-15
	-2.850176942887825e-04,-1.023394355345838e-13
	-2.850176914386057e-04,9.744401706406024e-14
	-2.836987619256104e-23,-2.027633109148449e-13
	-2.850176914386057e-04,9.744401706406024e-14
50		3.162277660168374e+00,0.000000000000000e+00
	-2.850176914386056e+00,9.971377980133906e-10
	1.000000000000000e+00,0.000000000000000e+00
	0.000000000000000e+00,0.000000000000000e+00
	2.850176914386056e-04,-9.971377980133906e-14
	2.970690726590022e-23,2.074862751508045e-13
	2.850176908722468e-12,-3.049268132957838e-15
	-2.850176942887825e-04,-1.047232272165076e-13
	-2.850176914386057e-04,9.971377980133906e-14
	-2.970690726590022e-23,-2.074862751508045e-13
	-2.850176914386057e-04,9.971377980133906e-14
51		3.235936569296277e+00,0.000000000000000e+00
	-2.850176914386056e+00,1.020364121045365e-09
	1.000000000000000e+00,0.000000000000000e+00
	0.000000000000000e+00,0.000000000000000e+00
	2.850176914386056e-04,-1.020364121045365e-13
	3.110695067242483e-23,2.123192513562546e-13
	2.850176908722468e-12,-3.120294712040760e-15
	-2.850176942887825e-04,-1.071625445396774e-13
	-2.850176914386057e-04,1.020364121045365e-13
	-3.110695067242483e-23,-2.123192513562546e-13
	-2.850176914386057e-04,1.020364121045365e-13
52		3.311311214825905e+00,0.000000000000000e+00
	-2.850176914386056e+00,1.044131454640433e-09
	1.000000000000000e+00,0.000000000000000e+00
	0.000000000000000e+00,0.000000000000000e+00
	2.850176914386056e-04,-1.044131454640433e-13
	3.257297609190715e-23,2.172648020391513e-13
	2.850176908722468e-12,-3.192975712682019e-15
	-2.850176942887825e-04,-1.096586808624260e-13
	-2.850176914386057e-04,1.044131454640433e-13
	-3.257297609190715e-23,-2.172648020391513e-13
	-2.850176914386057e-04,1.044131454640433e-13
53		3.388441561392020e+00,0.000000000000000e+00
	-2.850176914386056e+00,1.068452400553465e-09
	1.000000000000000e+00,0.000000000000000e+00
	0.000000000000000e+00,0.000000000000000e+00
	2.850176914386056e-04,-1.068452400553465e-13
	3.410809316081541e-23,2.223255493959289e-13
	2.850176908722468e-12,-3.267349671310128e-15
	-2.850176942887825e-04,-1.122129596692722e-13
	-2.850176914386057e-04,1.068452400553465e-13
	-3.410809316081541e-23,-2.223255493959289e-13
	-2.850176914386057e-04,1.068452400553465e-13
54		3.467368504525310e+00,0.000000000000000e+00
	-2.850176914386056e+00,1.093339854071910e-09
	1.000000000000000e+00,0.000000000000000e+00
	0.000000000000000e+00,0.000000000000000e+00
	2.850176914386056e-04,-1.093339854071910e-13
	3.571555806826945e-23,2.275041767018226e-13
	2.850176908722468e-12,-3.343456021982471e-15
	-2.850176942887825e-04,-1.148267352726491e-13
	-2.850176914386057e-04,1.093339854071910e-13
	-3.571555806826945e-23,-2.275041767018226e-13
	-2.850176914386057e-04,1.093339854071910e-13
55		3.548133892335748e+00,0.000000000000000e+00
	-2.850176914386056e+00,1.118807010853048e-09
	1.000000000000000e+00,0.000000000000000e+00
	0.000000000000000e+00,0.000000000000000e+00
	2.850176914386056e-04,-1.118807010853048e-13
	3.739878046285457e-23,2.328034297335775e-13
	2.850176908722468e-12,-3.421335117293562e-15
	-2.850176942887825e-04,-1.175013935309791e-13
	-2.850176914386057e-04,1.118807010853048e-13
	-3.739878046285457e-23,-2.328034297335775e-13
	-2.850176914386057e-04,1.118807010853048e-13
56		3.630780547701007e+00,0.000000000000000e+00
	-2.850176914386056e+00,1.144867373920502e-09
	1.000000000000000e+00,0.000000000000000e+00
	0.000000000000000e+00,0.000000000000000e+00
	2.850176914386056e-04,-1.144867373920502e-13
	3.916133068494325e-23,2.382261182252948e-13
	2.850176908722468e-12,-3.501028249770581e-15
	-2.850176942887825e-04,-1.202383525834741e-13
	-2.850176914386057e-04,1.144867373920502e-13
	-3.916133068494325e-23,-2.382261182252948e-13
	-2.850176914386057e-04,1.144867373920502e-13
57		3.715352290971718e+00,0.000000000000000e+00
	-2.850176914386056e+00,1.171534760823719e-09
	1.000000000000000e+00,0.000000000000000e+00
	0.000000000000000e+00,0.000000000000000e+00
	2.850176914386056e-04,-1.171534760823719e-13
	4.100694733986576e-23,2.437751173581906e-13
	2.850176908722468e-12,-3.582577673767165e-15
	-2.850176942887825e-04,-1.230390636020515e-13
	-2.850176914386057e-04,1.171534760823719e-13
	-4.100694733986576e-23,-2.437751173581906e-13
	-2.850176914386057e-04,1.171534760823719e-13