Title: * Amplificador CMOS – W=5.950431772228942e-06 L=8.317049656622044e-07 Vbias=1.031078126088096
Date: Wed Jul 30 16:08:27 2025
Plotname: Operating Point
Flags: real
No. Variables: 12
No. Points:            1
Offset:    0.0000000000000000e+00
Command: Linear Technology Corporation LTspice
Variables:
	0	V(out)	voltage
	1	V(in)	voltage
	2	V(bias)	voltage
	3	V(vdd)	voltage
	4	Id(M1)	device_current
	5	Ig(M1)	device_current
	6	Ib(M1)	device_current
	7	Is(M1)	device_current
	8	I(Rload)	device_current
	9	I(Vbias)	device_current
	10	I(Vin)	device_current
	11	I(Vdd)	device_current
Values:
0		1.799999974210782e+00
	0.000000000000000e+00
	1.031078126088096e+00
	1.800000000000000e+00
	2.578921822333468e-12
	0.000000000000000e+00
	-2.851078100298878e-12
	2.721562779654104e-13
	-2.578921831641879e-12
	-2.721562779654108e-13
	0.000000000000000e+00
	-2.578921830861253e-12
