Title: * GA CMOS Amp | W=1.5493948364455068e-06 L=6.587050767844754e-07 Vbias=1.4892410995967975
Date: Sat Sep  6 22:08:13 2025
Plotname: AC Analysis
Flags: complex forward log
No. Variables: 13
No. Points:          901
Offset:    0.0000000000000000e+00
Command: Linear Technology Corporation LTspice
Variables:
	0	frequency	frequency
	1	V(out)	voltage
	2	V(g)	voltage
	3	V(vdd)	voltage
	4	V(m1#dbody)	voltage
	5	V(m1#sbody)	voltage
	6	Id(M1)	device_current
	7	Ig(M1)	device_current
	8	Ib(M1)	device_current
	9	Is(M1)	device_current
	10	I(Rload)	device_current
	11	I(Vg)	device_current
	12	I(Vdd)	device_current
Values:
0		1.000000000000000e+00,0.000000000000000e+00
	-3.402089976005368e-01,6.972155699791901e-10
	1.000000000000000e+00,0.000000000000000e+00
	0.000000000000000e+00,0.000000000000000e+00
	3.337810006556274e-05,6.170076742754098e-14
	3.337810261712857e-05,7.186793382843189e-14
	3.402089976005368e-05,-6.972155699791906e-14
	1.996783147229281e-05,2.320237785699556e-13
	-1.780165457248288e-05,-3.765253350093834e-14
	-3.618707665986361e-05,-1.246496880710982e-13
	-3.402089976005368e-05,6.972155699791902e-14
	-1.996783147273362e-05,-2.320237785699556e-13
	-3.402089976005368e-05,6.972155699791902e-14
1		1.023292992280754e+00,0.000000000000000e+00
	-3.402089976005368e-01,7.134558068687372e-10
	1.000000000000000e+00,0.000000000000000e+00
	0.000000000000000e+00,0.000000000000000e+00
	3.337810006556274e-05,6.313796292694728e-14
	3.337810261712857e-05,7.354195305633129e-14
	3.402089976005368e-05,-7.134558068687376e-14
	1.996783147229281e-05,2.374283066531370e-13
	-1.780165457248288e-05,-3.852957367312654e-14
	-3.618707665986361e-05,-1.275531522931367e-13
	-3.402089976005368e-05,7.134558068687373e-14
	-1.996783147273362e-05,-2.374283066531370e-13
	-3.402089976005368e-05,7.134558068687373e-14
2		1.047128548050899e+00,0.000000000000000e+00
	-3.402089976005368e-01,7.300743274707898e-10
	1.000000000000000e+00,0.000000000000000e+00
	0.000000000000000e+00,0.000000000000000e+00
	3.337810006556274e-05,6.460863501002719e-14
	3.337810261712857e-05,7.525496520118398e-14
	3.402089976005368e-05,-7.300743274707901e-14
	1.996783147229281e-05,2.429587223672411e-13
	-1.780165457248288e-05,-3.942704273527541e-14
	-3.618707665986361e-05,-1.305242468848866e-13
	-3.402089976005368e-05,7.300743274707899e-14
	-1.996783147273362e-05,-2.429587223672410e-13
	-3.402089976005368e-05,7.300743274707899e-14
3		1.071519305237606e+00,0.000000000000000e+00
	-3.402089976005368e-01,7.470799431449436e-10
	1.000000000000000e+00,0.000000000000000e+00
	0.000000000000000e+00,0.000000000000000e+00
	3.337810006556274e-05,6.611356344658581e-14
	3.337810261712857e-05,7.700787852470356e-14
	3.402089976005368e-05,-7.470799431449438e-14
	1.996783147229281e-05,2.486179580118830e-13
	-1.780165457248288e-05,-4.034541653736113e-14
	-3.618707665986361e-05,-1.335645471600275e-13
	-3.402089976005368e-05,7.470799431449437e-14
	-1.996783147273362e-05,-2.486179580118830e-13
	-3.402089976005368e-05,7.470799431449437e-14
4		1.096478196143185e+00,0.000000000000000e+00
	-3.402089976005368e-01,7.644816704937249e-10
	1.000000000000000e+00,0.000000000000000e+00
	0.000000000000000e+00,0.000000000000000e+00
	3.337810006556274e-05,6.765354616960025e-14
	3.337810261712857e-05,7.880162244473671e-14
	3.402089976005368e-05,-7.644816704937251e-14
	1.996783147229281e-05,2.544090141887106e-13
	-1.780165457248288e-05,-4.128518201332969e-14
	-3.618707665986361e-05,-1.366756651260084e-13
	-3.402089976005368e-05,7.644816704937249e-14
	-1.996783147273362e-05,-2.544090141887106e-13
	-3.402089976005368e-05,7.644816704937249e-14
5		1.122018454301963e+00,0.000000000000000e+00
	-3.402089976005368e-01,7.822887361433133e-10
	1.000000000000000e+00,0.000000000000000e+00
	0.000000000000000e+00,0.000000000000000e+00
	3.337810006556274e-05,6.922939969829441e-14
	3.337810261712857e-05,8.063714802805290e-14
	3.402089976005368e-05,-7.822887361433136e-14
	1.996783147229281e-05,2.603349613923626e-13
	-1.780165457248288e-05,-4.224683743927572e-14
	-3.618707665986361e-05,-1.398592503387555e-13
	-3.402089976005368e-05,7.822887361433133e-14
	-1.996783147273362e-05,-2.603349613923625e-13
	-3.402089976005368e-05,7.822887361433133e-14
6		1.148153621496882e+00,0.000000000000000e+00
	-3.402089976005368e-01,8.005105816356204e-10
	1.000000000000000e+00,0.000000000000000e+00
	0.000000000000000e+00,0.000000000000000e+00
	3.337810006556274e-05,7.084195957106805e-14
	3.337810261712857e-05,8.251542849461236e-14
	3.402089976005368e-05,-8.005105816356206e-14
	1.996783147229281e-05,2.663989416384853e-13
	-1.780165457248288e-05,-4.323089269763504e-14
	-3.618707665986361e-05,-1.431169907772882e-13
	-3.402089976005368e-05,8.005105816356204e-14
	-1.996783147273362e-05,-2.663989416384852e-13
	-3.402089976005368e-05,8.005105816356204e-14
7		1.174897554939529e+00,0.000000000000000e+00
	-3.402089976005368e-01,8.191568684343210e-10
	1.000000000000000e+00,0.000000000000000e+00
	0.000000000000000e+00,0.000000000000000e+00
	3.337810006556274e-05,7.249208078851043e-14
	3.337810261712857e-05,8.443745973358049e-14
	3.402089976005368e-05,-8.191568684343211e-14
	1.996783147229281e-05,2.726041701296716e-13
	-1.780165457248288e-05,-4.423786954753116e-14
	-3.618707665986361e-05,-1.464506137387083e-13
	-3.402089976005368e-05,8.191568684343211e-14
	-1.996783147273362e-05,-2.726041701296715e-13
	-3.402089976005368e-05,8.191568684343211e-14
8		1.202264434617413e+00,0.000000000000000e+00
	-3.402089976005368e-01,8.382374830474883e-10
	1.000000000000000e+00,0.000000000000000e+00
	0.000000000000000e+00,0.000000000000000e+00
	3.337810006556274e-05,7.418063826673299e-14
	3.337810261712857e-05,8.640426083136125e-14
	3.402089976005368e-05,-8.382374830474885e-14
	1.996783147229281e-05,2.789539369602034e-13
	-1.780165457248288e-05,-4.526830190141881e-14
	-3.618707665986361e-05,-1.498618867540358e-13
	-3.402089976005368e-05,8.382374830474883e-14
	-1.996783147273362e-05,-2.789539369602034e-13
	-3.402089976005368e-05,8.382374830474883e-14
9		1.230268770812381e+00,0.000000000000000e+00
	-3.402089976005368e-01,8.577625422695522e-10
	1.000000000000000e+00,0.000000000000000e+00
	0.000000000000000e+00,0.000000000000000e+00
	3.337810006556274e-05,7.590852730126141e-14
	3.337810261712857e-05,8.841687461193041e-14
	3.402089976005368e-05,-8.577625422695524e-14
	1.996783147229281e-05,2.854516088605034e-13
	-1.780165457248288e-05,-4.632273610817139e-14
	-3.618707665986361e-05,-1.533526185253768e-13
	-3.402089976005368e-05,8.577625422695523e-14
	-1.996783147273362e-05,-2.854516088605034e-13
	-3.402089976005368e-05,8.577625422695523e-14
10		1.258925411794167e+00,0.000000000000000e+00
	-3.402089976005368e-01,8.777423985453570e-10
	1.000000000000000e+00,0.000000000000000e+00
	0.000000000000000e+00,0.000000000000000e+00
	3.337810006556274e-05,7.767666404173310e-14
	3.337810261712857e-05,9.047636818975450e-14
	3.402089976005368e-05,-8.777423985453572e-14
	1.996783147229281e-05,2.921006309822200e-13
	-1.780165457248288e-05,-4.740173124276244e-14
	-3.618707665986361e-05,-1.569246598849218e-13
	-3.402089976005368e-05,8.777423985453571e-14
	-1.996783147273362e-05,-2.921006309822200e-13
	-3.402089976005368e-05,8.777423985453571e-14
11		1.288249551693134e+00,0.000000000000000e+00
	-3.402089976005368e-01,8.981876454591646e-10
	1.000000000000000e+00,0.000000000000000e+00
	0.000000000000000e+00,0.000000000000000e+00
	3.337810006556274e-05,7.948598597765195e-14
	3.337810261712857e-05,9.258383353558917e-14
	3.402089976005368e-05,-8.981876454591650e-14
	1.996783147229281e-05,2.989045287248923e-13
	-1.780165457248288e-05,-4.850585940269452e-14
	-3.618707665986361e-05,-1.605799047762813e-13
	-3.402089976005368e-05,8.981876454591646e-14
	-1.996783147273362e-05,-2.989045287248923e-13
	-3.402089976005368e-05,8.981876454591646e-14
12		1.318256738556407e+00,0.000000000000000e+00
	-3.402089976005368e-01,9.191091233515138e-10
	1.000000000000000e+00,0.000000000000000e+00
	0.000000000000000e+00,0.000000000000000e+00
	3.337810006556274e-05,8.133745243545752e-14
	3.337810261712857e-05,9.474038805545624e-14
	3.402089976005368e-05,-9.191091233515140e-14
	1.996783147229281e-05,3.058669096051636e-13
	-1.780165457248288e-05,-4.963570601133281e-14
	-3.618707665986361e-05,-1.643202912586794e-13
	-3.402089976005368e-05,9.191091233515139e-14
	-1.996783147273362e-05,-3.058669096051636e-13
	-3.402089976005368e-05,9.191091233515139e-14
13		1.348962882591653e+00,0.000000000000000e+00
	-3.402089976005368e-01,9.405179250669112e-10
	1.000000000000000e+00,0.000000000000000e+00
	0.000000000000000e+00,0.000000000000000e+00
	3.337810006556274e-05,8.323204508717283e-14
	3.337810261712857e-05,9.694717518310765e-14
	3.402089976005368e-05,-9.405179250669115e-14
	1.996783147229281e-05,3.129914651695348e-13
	-1.780165457248288e-05,-5.079187012830457e-14
	-3.618707665986361e-05,-1.681478025345391e-13
	-3.402089976005368e-05,9.405179250669112e-14
	-1.996783147273362e-05,-3.129914651695348e-13
	-3.402089976005368e-05,9.405179250669112e-14
14		1.380384264602885e+00,0.000000000000000e+00
	-3.402089976005368e-01,9.624254018354058e-10
	1.000000000000000e+00,0.000000000000000e+00
	0.000000000000000e+00,0.000000000000000e+00
	3.337810006556274e-05,8.517076847089974e-14
	3.337810261712857e-05,9.920536498628871e-14
	3.402089976005368e-05,-9.624254018354059e-14
	1.996783147229281e-05,3.202819729516707e-13
	-1.780165457248288e-05,-5.197496476712824e-14
	-3.618707665986361e-05,-1.720644680010019e-13
	-3.402089976005368e-05,9.624254018354058e-14
	-1.996783147273362e-05,-3.202819729516707e-13
	-3.402089976005368e-05,9.624254018354058e-14
15		1.412537544622754e+00,0.000000000000000e+00
	-3.402089976005368e-01,9.848431692911595e-10
	1.000000000000000e+00,0.000000000000000e+00
	0.000000000000000e+00,0.000000000000000e+00
	3.337810006556274e-05,8.715465052343831e-14
	3.337810261712857e-05,1.015161547871237e-13
	3.402089976005368e-05,-9.848431692911599e-14
	1.996783147229281e-05,3.277422984752987e-13
	-1.780165457248288e-05,-5.318561722024142e-14
	-3.618707665986361e-05,-1.760723643259413e-13
	-3.402089976005368e-05,9.848431692911595e-14
	-1.996783147273362e-05,-3.277422984752987e-13
	-3.402089976005368e-05,9.848431692911595e-14
16		1.445439770745927e+00,0.000000000000000e+00
	-3.402089976005368e-01,1.007783113631212e-09
	1.000000000000000e+00,0.000000000000000e+00
	0.000000000000000e+00,0.000000000000000e+00
	3.337810006556274e-05,8.918474312531258e-14
	3.337810261712857e-05,1.038807697969520e-13
	3.402089976005368e-05,-1.007783113631212e-13
	1.996783147229281e-05,3.353763973037604e-13
	-1.780165457248288e-05,-5.442446939159965e-14
	-3.618707665986361e-05,-1.801736165490396e-13
	-3.402089976005368e-05,1.007783113631212e-13
	-1.996783147273362e-05,-3.353763973037604e-13
	-3.402089976005368e-05,1.007783113631212e-13
17		1.479108388168207e+00,0.000000000000000e+00
	-3.402089976005368e-01,1.031257397917698e-09
	1.000000000000000e+00,0.000000000000000e+00
	0.000000000000000e+00,0.000000000000000e+00
	3.337810006556274e-05,9.126212265849150e-14
	3.337810261712857e-05,1.063004637659512e-13
	3.402089976005368e-05,-1.031257397917698e-13
	1.996783147229281e-05,3.431883171373040e-13
	-1.780165457248288e-05,-5.569217813702231e-14
	-3.618707665986361e-05,-1.843703992085119e-13
	-3.402089976005368e-05,1.031257397917698e-13
	-1.996783147273362e-05,-3.431883171373040e-13
	-3.402089976005368e-05,1.031257397917698e-13
18		1.513561248436208e+00,0.000000000000000e+00
	-3.402089976005368e-01,1.055278468526865e-09
	1.000000000000000e+00,0.000000000000000e+00
	0.000000000000000e+00,0.000000000000000e+00
	3.337810006556274e-05,9.338789057710097e-14
	3.337810261712857e-05,1.087765196478921e-13
	3.402089976005368e-05,-1.055278468526866e-13
	1.996783147229281e-05,3.511821999592282e-13
	-1.780165457248288e-05,-5.698941561246635e-14
	-3.618707665986361e-05,-1.886649374940753e-13
	-3.402089976005368e-05,1.055278468526865e-13
	-1.996783147273362e-05,-3.511821999592282e-13
	-3.402089976005368e-05,1.055278468526865e-13
19		1.548816618912481e+00,0.000000000000000e+00
	-3.402089976005368e-01,1.079859061748307e-09
	1.000000000000000e+00,0.000000000000000e+00
	0.000000000000000e+00,0.000000000000000e+00
	3.337810006556274e-05,9.556317399142929e-14
	3.337810261712857e-05,1.113102502803777e-13
	3.402089976005368e-05,-1.079859061748308e-13
	1.996783147229281e-05,3.593622842320168e-13
	-1.780165457248288e-05,-5.831686963041221e-14
	-3.618707665986361e-05,-1.930595084267737e-13
	-3.402089976005368e-05,1.079859061748307e-13
	-1.996783147273362e-05,-3.593622842320168e-13
	-3.402089976005368e-05,1.079859061748307e-13
20		1.584893192461113e+00,0.000000000000000e+00
	-3.402089976005368e-01,1.105012210537913e-09
	1.000000000000000e+00,0.000000000000000e+00
	0.000000000000000e+00,0.000000000000000e+00
	3.337810006556274e-05,9.778912626553603e-14
	3.337810261712857e-05,1.139029990809274e-13
	3.402089976005368e-05,-1.105012210537913e-13
	1.996783147229281e-05,3.677329071446273e-13
	-1.780165457248288e-05,-5.967524402455115e-14
	-3.618707665986361e-05,-1.975564420662848e-13
	-3.402089976005368e-05,1.105012210537913e-13
	-1.996783147273362e-05,-3.677329071446273e-13
	-3.402089976005368e-05,1.105012210537913e-13
21		1.621810097358929e+00,0.000000000000000e+00
	-3.402089976005368e-01,1.130751251428112e-09
	1.000000000000000e+00,0.000000000000000e+00
	0.000000000000000e+00,0.000000000000000e+00
	3.337810006556274e-05,1.000669276287809e-13
	3.337810261712857e-05,1.165561407592742e-13
	3.402089976005368e-05,-1.130751251428112e-13
	1.996783147229281e-05,3.762985069121264e-13
	-1.780165457248288e-05,-6.106525902296715e-14
	-3.618707665986361e-05,-2.021581227463480e-13
	-3.402089976005368e-05,1.130751251428112e-13
	-1.996783147273362e-05,-3.762985069121263e-13
	-3.402089976005368e-05,1.130751251428112e-13
22		1.659586907437560e+00,0.000000000000000e+00
	-3.402089976005368e-01,1.157089831599080e-09
	1.000000000000000e+00,0.000000000000000e+00
	0.000000000000000e+00,0.000000000000000e+00
	3.337810006556274e-05,1.023977858015968e-13
	3.337810261712857e-05,1.192710820462544e-13
	3.402089976005368e-05,-1.157089831599080e-13
	1.996783147229281e-05,3.850636251288898e-13
	-1.780165457248288e-05,-6.248765163001135e-14
	-3.618707665986361e-05,-2.068669903389704e-13
	-3.402089976005368e-05,1.157089831599080e-13
	-1.996783147273362e-05,-3.850636251288898e-13
	-3.402089976005368e-05,1.157089831599080e-13
23		1.698243652461743e+00,0.000000000000000e+00
	-3.402089976005368e-01,1.184041916114656e-09
	1.000000000000000e+00,0.000000000000000e+00
	0.000000000000000e+00,0.000000000000000e+00
	3.337810006556274e-05,1.047829366358397e-13
	3.337810261712857e-05,1.220492624396750e-13
	3.402089976005368e-05,-1.184041916114657e-13
	1.996783147229281e-05,3.940329091766163e-13
	-1.780165457248288e-05,-6.394317601707168e-14
	-3.618707665986361e-05,-2.116855415480789e-13
	-3.402089976005368e-05,1.184041916114656e-13
	-1.996783147273362e-05,-3.940329091766163e-13
	-3.402089976005368e-05,1.184041916114656e-13
24		1.737800828749374e+00,0.000000000000000e+00
	-3.402089976005368e-01,1.211621795326804e-09
	1.000000000000000e+00,0.000000000000000e+00
	0.000000000000000e+00,0.000000000000000e+00
	3.337810006556274e-05,1.072236447700531e-13
	3.337810261712857e-05,1.248921549675541e-13
	3.402089976005368e-05,-1.211621795326805e-13
	1.996783147229281e-05,4.032111146884302e-13
	-1.780165457248288e-05,-6.543260392244422e-14
	-3.618707665986361e-05,-2.166163312333055e-13
	-3.402089976005368e-05,1.211621795326804e-13
	-1.996783147273362e-05,-4.032111146884301e-13
	-3.402089976005368e-05,1.211621795326804e-13
25		1.778279410038922e+00,0.000000000000000e+00
	-3.402089976005368e-01,1.239844092452545e-09
	1.000000000000000e+00,0.000000000000000e+00
	0.000000000000000e+00,0.000000000000000e+00
	3.337810006556274e-05,1.097212042999962e-13
	3.337810261712857e-05,1.278012669691401e-13
	3.402089976005368e-05,-1.239844092452545e-13
	1.996783147229281e-05,4.126031080703820e-13
	-1.780165457248288e-05,-6.695672506051934e-14
	-3.618707665986361e-05,-2.216619737646082e-13
	-3.402089976005368e-05,1.239844092452545e-13
	-1.996783147273362e-05,-4.126031080703820e-13
	-3.402089976005368e-05,1.239844092452545e-13
26		1.819700858609982e+00,0.000000000000000e+00
	-3.402089976005368e-01,1.268723771327381e-09
	1.000000000000000e+00,0.000000000000000e+00
	0.000000000000000e+00,0.000000000000000e+00
	3.337810006556274e-05,1.122769394647911e-13
	3.337810261712857e-05,1.307781408941228e-13
	3.402089976005368e-05,-1.268723771327381e-13
	1.996783147229281e-05,4.222138690816807e-13
	-1.780165457248288e-05,-6.851634754049860e-14
	-3.618707665986361e-05,-2.268251444084439e-13
	-3.402089976005368e-05,1.268723771327381e-13
	-1.996783147273362e-05,-4.222138690816806e-13
	-3.402089976005368e-05,1.268723771327381e-13
27		1.862087136662866e+00,0.000000000000000e+00
	-3.402089976005368e-01,1.298276144339319e-09
	1.000000000000000e+00,0.000000000000000e+00
	0.000000000000000e+00,0.000000000000000e+00
	3.337810006556274e-05,1.148922053490512e-13
	3.337810261712857e-05,1.338243551204610e-13
	3.402089976005368e-05,-1.298276144339319e-13
	1.996783147229281e-05,4.320484934750276e-13
	-1.780165457248288e-05,-7.011229829486490e-14
	-3.618707665986361e-05,-2.321085807462307e-13
	-3.402089976005368e-05,1.298276144339319e-13
	-1.996783147273362e-05,-4.320484934750275e-13
	-3.402089976005368e-05,1.298276144339319e-13
28		1.905460717963246e+00,0.000000000000000e+00
	-3.402089976005368e-01,1.328516880547702e-09
	1.000000000000000e+00,0.000000000000000e+00
	0.000000000000000e+00,0.000000000000000e+00
	3.337810006556274e-05,1.175683886013654e-13
	3.337810261712857e-05,1.369415247912588e-13
	3.402089976005368e-05,-1.328516880547702e-13
	1.996783147229281e-05,4.421121956984528e-13
	-1.780165457248288e-05,-7.174542351783312e-14
	-3.618707665986361e-05,-2.375150841258495e-13
	-3.402089976005368e-05,1.328516880547702e-13
	-1.996783147273362e-05,-4.421121956984528e-13
	-3.402089976005368e-05,1.328516880547702e-13
29		1.949844599758044e+00,0.000000000000000e+00
	-3.402089976005368e-01,1.359462013991151e-09
	1.000000000000000e+00,0.000000000000000e+00
	0.000000000000000e+00,0.000000000000000e+00
	3.337810006556274e-05,1.203069081695178e-13
	3.337810261712857e-05,1.401313026711363e-13
	3.402089976005368e-05,-1.359462013991151e-13
	1.996783147229281e-05,4.524103116600842e-13
	-1.780165457248288e-05,-7.341658911401345e-14
	-3.618707665986361e-05,-2.430475211469556e-13
	-3.402089976005368e-05,1.359462013991151e-13
	-1.996783147273362e-05,-4.524103116600841e-13
	-3.402089976005368e-05,1.359462013991151e-13
30		1.995262314968878e+00,0.000000000000000e+00
	-3.402089976005368e-01,1.391127952189025e-09
	1.000000000000000e+00,0.000000000000000e+00
	0.000000000000000e+00,0.000000000000000e+00
	3.337810006556274e-05,1.231092160528317e-13
	3.337810261712857e-05,1.433953800225471e-13
	3.402089976005368e-05,-1.391127952189026e-13
	1.996783147229281e-05,4.629483015573160e-13
	-1.780165457248288e-05,-7.512668115752545e-14
	-3.618707665986361e-05,-2.487088251808880e-13
	-3.402089976005368e-05,1.391127952189025e-13
	-1.996783147273362e-05,-4.629483015573160e-13
	-3.402089976005368e-05,1.391127952189025e-13
31		2.041737944669527e+00,0.000000000000000e+00
	-3.402089976005368e-01,1.423531484840905e-09
	1.000000000000000e+00,0.000000000000000e+00
	0.000000000000000e+00,0.000000000000000e+00
	3.337810006556274e-05,1.259767980720400e-13
	3.337810261712857e-05,1.467354875025081e-13
	3.402089976005368e-05,-1.423531484840905e-13
	1.996783147229281e-05,4.737317527718787e-13
	-1.780165457248288e-05,-7.687660636180637e-14
	-3.618707665986361e-05,-2.545019979259819e-13
	-3.402089976005368e-05,1.423531484840905e-13
	-1.996783147273362e-05,-4.737317527718786e-13
	-3.402089976005368e-05,1.423531484840905e-13
32		2.089296130854037e+00,0.000000000000000e+00
	-3.402089976005368e-01,1.456689792728715e-09
	1.000000000000000e+00,0.000000000000000e+00
	0.000000000000000e+00,0.000000000000000e+00
	3.337810006556274e-05,1.289111746570862e-13
	3.337810261712857e-05,1.501533960802167e-13
	3.402089976005368e-05,-1.456689792728715e-13
	1.996783147229281e-05,4.847663828323423e-13
	-1.780165457248288e-05,-7.866729256036251e-14
	-3.618707665986361e-05,-2.604301109991082e-13
	-3.402089976005368e-05,1.456689792728715e-13
	-1.996783147273362e-05,-4.847663828323422e-13
	-3.402089976005368e-05,1.456689792728715e-13
33		2.137962089502230e+00,0.000000000000000e+00
	-3.402089976005368e-01,1.490620456826198e-09
	1.000000000000000e+00,0.000000000000000e+00
	0.000000000000000e+00,0.000000000000000e+00
	3.337810006556274e-05,1.319139016532766e-13
	3.337810261712857e-05,1.536509179760422e-13
	3.402089976005368e-05,-1.490620456826198e-13
	1.996783147229281e-05,4.960580424456251e-13
	-1.780165457248288e-05,-8.049968919871883e-14
	-3.618707665986361e-05,-2.664963075642864e-13
	-3.402089976005368e-05,1.490620456826198e-13
	-1.996783147273362e-05,-4.960580424456251e-13
	-3.402089976005368e-05,1.490620456826198e-13
34		2.187761623949550e+00,0.000000000000000e+00
	-3.402089976005368e-01,1.525341467620585e-09
	1.000000000000000e+00,0.000000000000000e+00
	0.000000000000000e+00,0.000000000000000e+00
	3.337810006556274e-05,1.349865711462105e-13
	3.337810261712857e-05,1.572299076223889e-13
	3.402089976005368e-05,-1.525341467620585e-13
	1.996783147229281e-05,5.076127185991169e-13
	-1.780165457248288e-05,-8.237476783782770e-14
	-3.618707665986361e-05,-2.727038039992308e-13
	-3.402089976005368e-05,1.525341467620585e-13
	-1.996783147273362e-05,-5.076127185991169e-13
	-3.402089976005368e-05,1.525341467620585e-13
35		2.238721138568337e+00,0.000000000000000e+00
	-3.402089976005368e-01,1.560871234651385e-09
	1.000000000000000e+00,0.000000000000000e+00
	0.000000000000000e+00,0.000000000000000e+00
	3.337810006556274e-05,1.381308123059246e-13
	3.337810261712857e-05,1.608922626469409e-13
	3.402089976005368e-05,-1.560871234651386e-13
	1.996783147229281e-05,5.194365377350588e-13
	-1.780165457248288e-05,-8.429352266920312e-14
	-3.618707665986361e-05,-2.790558916007172e-13
	-3.402089976005368e-05,1.560871234651386e-13
	-1.996783147273362e-05,-5.194365377350588e-13
	-3.402089976005368e-05,1.560871234651386e-13
36		2.290867652767770e+00,0.000000000000000e+00
	-3.402089976005368e-01,1.597228596271371e-09
	1.000000000000000e+00,0.000000000000000e+00
	0.000000000000000e+00,0.000000000000000e+00
	3.337810006556274e-05,1.413482922507009e-13
	3.337810261712857e-05,1.646399248788092e-13
	3.402089976005368e-05,-1.597228596271371e-13
	1.996783147229281e-05,5.315357689988633e-13
	-1.780165457248288e-05,-8.625697104205446e-14
	-3.618707665986361e-05,-2.855559383296717e-13
	-3.402089976005368e-05,1.597228596271371e-13
	-1.996783147273362e-05,-5.315357689988632e-13
	-3.402089976005368e-05,1.597228596271371e-13
37		2.344228815319919e+00,0.000000000000000e+00
	-3.402089976005368e-01,1.634432829634920e-09
	1.000000000000000e+00,0.000000000000000e+00
	0.000000000000000e+00,0.000000000000000e+00
	3.337810006556274e-05,1.446407169309942e-13
	3.337810261712857e-05,1.684748813781152e-13
	3.402089976005368e-05,-1.634432829634920e-13
	1.996783147229281e-05,5.439168275630984e-13
	-1.780165457248288e-05,-8.826615400269825e-14
	-3.618707665986361e-05,-2.922073905969082e-13
	-3.402089976005368e-05,1.634432829634920e-13
	-1.996783147273362e-05,-5.439168275630983e-13
	-3.402089976005368e-05,1.634432829634920e-13
38		2.398832919019488e+00,0.000000000000000e+00
	-3.402089976005368e-01,1.672503660919017e-09
	1.000000000000000e+00,0.000000000000000e+00
	0.000000000000000e+00,0.000000000000000e+00
	3.337810006556274e-05,1.480098320339506e-13
	3.337810261712857e-05,1.723991654895566e-13
	3.402089976005368e-05,-1.672503660919018e-13
	1.996783147229281e-05,5.565862780288980e-13
	-1.780165457248288e-05,-9.032213684653494e-14
	-3.618707665986361e-05,-2.990137750904613e-13
	-3.402089976005368e-05,1.672503660919017e-13
	-1.996783147273362e-05,-5.565862780288979e-13
	-3.402089976005368e-05,1.672503660919017e-13
39		2.454708915685027e+00,0.000000000000000e+00
	-3.402089976005368e-01,1.711461275782337e-09
	1.000000000000000e+00,0.000000000000000e+00
	0.000000000000000e+00,0.000000000000000e+00
	3.337810006556274e-05,1.514574239089931e-13
	3.337810261712857e-05,1.764148579205133e-13
	3.402089976005368e-05,-1.711461275782337e-13
	1.996783147229281e-05,5.695508379065987e-13
	-1.780165457248288e-05,-9.242600968288250e-14
	-3.618707665986361e-05,-3.059787006454825e-13
	-3.402089976005368e-05,1.711461275782337e-13
	-1.996783147273362e-05,-5.695508379065988e-13
	-3.402089976005368e-05,1.711461275782337e-13
40		2.511886431509577e+00,0.000000000000000e+00
	-3.402089976005368e-01,1.751326330067944e-09
	1.000000000000000e+00,0.000000000000000e+00
	0.000000000000000e+00,0.000000000000000e+00
	3.337810006556274e-05,1.549853205149682e-13
	3.337810261712857e-05,1.805240878442662e-13
	3.402089976005368e-05,-1.751326330067945e-13
	1.996783147229281e-05,5.828173811774541e-13
	-1.780165457248288e-05,-9.457888801296679e-14
	-3.618707665986361e-05,-3.131058601576928e-13
	-3.402089976005368e-05,1.751326330067944e-13
	-1.996783147273362e-05,-5.828173811774541e-13
	-3.402089976005368e-05,1.751326330067944e-13
41		2.570395782768860e+00,0.000000000000000e+00
	-3.402089976005368e-01,1.792119960755298e-09
	1.000000000000000e+00,0.000000000000000e+00
	0.000000000000000e+00,0.000000000000000e+00
	3.337810006556274e-05,1.585953923893535e-13
	3.337810261712857e-05,1.847290340289128e-13
	3.402089976005368e-05,-1.792119960755299e-13
	1.996783147229281e-05,5.963929419383098e-13
	-1.780165457248288e-05,-9.678191332137512e-14
	-3.618707665986361e-05,-3.203990325414048e-13
	-3.402089976005368e-05,1.792119960755298e-13
	-1.996783147273362e-05,-5.963929419383097e-13
	-3.402089976005368e-05,1.792119960755298e-13
42		2.630267991895378e+00,0.000000000000000e+00
	-3.402089976005368e-01,1.833863797167357e-09
	1.000000000000000e+00,0.000000000000000e+00
	0.000000000000000e+00,0.000000000000000e+00
	3.337810006556274e-05,1.622895536400419e-13
	3.337810261712857e-05,1.890319259925794e-13
	3.402089976005368e-05,-1.833863797167357e-13
	1.996783147229281e-05,6.102847181311752e-13
	-1.780165457248288e-05,-9.903625368128653e-14
	-3.618707665986361e-05,-3.278620847331529e-13
	-3.402089976005368e-05,1.833863797167357e-13
	-1.996783147273362e-05,-6.102847181311751e-13
	-3.402089976005368e-05,1.833863797167357e-13
43		2.691534803926912e+00,0.000000000000000e+00
	-3.402089976005368e-01,1.876579972438731e-09
	1.000000000000000e+00,0.000000000000000e+00
	0.000000000000000e+00,0.000000000000000e+00
	3.337810006556274e-05,1.660697629602264e-13
	3.337810261712857e-05,1.934350451855406e-13
	3.402089976005368e-05,-1.876579972438731e-13
	1.996783147229281e-05,6.245000753596667e-13
	-1.780165457248288e-05,-1.013431043737996e-13
	-3.618707665986361e-05,-3.354989737419941e-13
	-3.402089976005368e-05,1.876579972438731e-13
	-1.996783147273362e-05,-6.245000753596668e-13
	-3.402089976005368e-05,1.876579972438731e-13
44		2.754228703338163e+00,0.000000000000000e+00
	-3.402089976005368e-01,1.920291135250963e-09
	1.000000000000000e+00,0.000000000000000e+00
	0.000000000000000e+00,0.000000000000000e+00
	3.337810006556274e-05,1.699380246669257e-13
	3.337810261712857e-05,1.979407261998748e-13
	3.402089976005368e-05,-1.920291135250964e-13
	1.996783147229281e-05,6.390465507943499e-13
	-1.780165457248288e-05,-1.037036885216861e-13
	-3.618707665986361e-05,-3.433137487475674e-13
	-3.402089976005368e-05,1.920291135250963e-13
	-1.996783147273362e-05,-6.390465507943499e-13
	-3.402089976005368e-05,1.920291135250963e-13
45		2.818382931264450e+00,0.000000000000000e+00
	-3.402089976005368e-01,1.965020461841165e-09
	1.000000000000000e+00,0.000000000000000e+00
	0.000000000000000e+00,0.000000000000000e+00
	3.337810006556274e-05,1.738963897636990e-13
	3.337810261712857e-05,2.025513580072953e-13
	3.402089976005368e-05,-1.965020461841165e-13
	1.996783147229281e-05,6.539318571690453e-13
	-1.780165457248288e-05,-1.061192577379075e-13
	-3.618707665986361e-05,-3.513105532470212e-13
	-3.402089976005368e-05,1.965020461841165e-13
	-1.996783147273362e-05,-6.539318571690451e-13
	-3.402089976005368e-05,1.965020461841165e-13
46		2.884031503126602e+00,0.000000000000000e+00
	-3.402089976005368e-01,2.010791668290355e-09
	1.000000000000000e+00,0.000000000000000e+00
	0.000000000000000e+00,0.000000000000000e+00
	3.337810006556274e-05,1.779469570281158e-13
	3.337810261712857e-05,2.072693852258155e-13
	3.402089976005368e-05,-2.010791668290355e-13
	1.996783147229281e-05,6.691638868702229e-13
	-1.780165457248288e-05,-1.085910927892359e-13
	-3.618707665986361e-05,-3.594936272519515e-13
	-3.402089976005368e-05,2.010791668290355e-13
	-1.996783147273362e-05,-6.691638868702229e-13
	-3.402089976005368e-05,2.010791668290355e-13
47		2.951209226666381e+00,0.000000000000000e+00
	-3.402089976005368e-01,2.057629023098046e-09
	1.000000000000000e+00,0.000000000000000e+00
	0.000000000000000e+00,0.000000000000000e+00
	3.337810006556274e-05,1.820918741245554e-13
	3.337810261712857e-05,2.120973094159171e-13
	3.402089976005368e-05,-2.057629023098047e-13
	1.996783147229281e-05,6.847507161216505e-13
	-1.780165457248288e-05,-1.111205042753342e-13
	-3.618707665986361e-05,-3.678673095365115e-13
	-3.402089976005368e-05,2.057629023098047e-13
	-1.996783147273362e-05,-6.847507161216506e-13
	-3.402089976005368e-05,2.057629023098047e-13
48		3.019951720402012e+00,0.000000000000000e+00
	-3.402089976005368e-01,2.105557360049726e-09
	1.000000000000000e+00,0.000000000000000e+00
	0.000000000000000e+00,0.000000000000000e+00
	3.337810006556274e-05,1.863333387429267e-13
	3.337810261712857e-05,2.170376904069108e-13
	3.402089976005368e-05,-2.105557360049725e-13
	1.996783147229281e-05,7.007006092665129e-13
	-1.780165457248288e-05,-1.137088333236531e-13
	-3.618707665986361e-05,-3.764360399378873e-13
	-3.402089976005368e-05,2.105557360049726e-13
	-1.996783147273362e-05,-7.007006092665127e-13
	-3.402089976005368e-05,2.105557360049726e-13
49		3.090295432513586e+00,0.000000000000000e+00