Title: * Netlist adaptada do 'CMOS class AB Output STAGES_FINAL.asc'
Date: Sat Oct 18 16:40:21 2025
Plotname: AC Analysis
Flags: complex forward log
No. Variables: 25
No. Points:         1001
Offset:    0.0000000000000000e+00
Command: Linear Technology Corporation LTspice
Variables:
	0	frequency	frequency
	1	V(out)	voltage
	2	V(bias)	voltage
	3	V(in)	voltage
	4	V(vdd)	voltage
	5	Id(M8)	device_current
	6	Ig(M8)	device_current
	7	Ib(M8)	device_current
	8	Is(M8)	device_current
	9	Id(M2)	device_current
	10	Ig(M2)	device_current
	11	Ib(M2)	device_current
	12	Is(M2)	device_current
	13	Id(M6)	device_current
	14	Ig(M6)	device_current
	15	Ib(M6)	device_current
	16	Is(M6)	device_current
	17	Id(M3)	device_current
	18	Ig(M3)	device_current
	19	Ib(M3)	device_current
	20	Is(M3)	device_current
	21	I(V4)	device_current
	22	I(Vdd)	device_current
	23	I(V2)	device_current
	24	I(Vdd1)	device_current
Values:
0		1.000000000000000e+08,0.000000000000000e+00
	0.000000000000000e+00,0.000000000000000e+00
	0.000000000000000e+00,0.000000000000000e+00
	1.000000000000000e+00,0.000000000000000e+00
	0.000000000000000e+00,0.000000000000000e+00
	0.000000000000000e+00,0.000000000000000e+00
	0.000000000000000e+00,0.000000000000000e+00
	0.000000000000000e+00,0.000000000000000e+00
	0.000000000000000e+00,0.000000000000000e+00
	1.315163017422706e-03,2.204200405059242e-06
	0.000000000000000e+00,-2.367492863873695e-06
	-1.386635007814537e-12,-1.474726298038170e-06
	-1.315163016036071e-03,1.638018756852623e-06
	7.545347019163466e-04,-4.121084391254115e-06
	0.000000000000000e+00,9.497687693612507e-06
	0.000000000000000e+00,-1.255518911104278e-06
	-7.545347019163466e-04,-4.121084391254114e-06
	8.258080403909295e-04,-2.413535920453509e-06
	0.000000000000000e+00,7.798078679064332e-06
	-1.000000000000000e-12,-1.252308227319577e-06
	-8.258080393909295e-04,-4.132234531291247e-06
	0.000000000000000e+00,2.367492863873695e-06
	1.580342742307276e-03,1.076114606096922e-05
	-2.140971057813635e-03,-1.708643085728258e-05
	-7.545347019163466e-04,4.121084391254115e-06
1		1.002305238077900e+08,0.000000000000000e+00
	0.000000000000000e+00,0.000000000000000e+00
	0.000000000000000e+00,0.000000000000000e+00
	1.000000000000000e+00,0.000000000000000e+00
	0.000000000000000e+00,0.000000000000000e+00
	0.000000000000000e+00,0.000000000000000e+00
	0.000000000000000e+00,0.000000000000000e+00
	0.000000000000000e+00,0.000000000000000e+00
	0.000000000000000e+00,0.000000000000000e+00
	1.315163017422706e-03,2.209281611764307e-06
	0.000000000000000e+00,-2.372950498572653e-06
	-1.386635007814537e-12,-1.478125893254888e-06
	-1.315163016036071e-03,1.641794780063234e-06
	7.545347019163466e-04,-4.130584471915072e-06
	0.000000000000000e+00,9.519582124935823e-06
	0.000000000000000e+00,-1.258413181105679e-06
	-7.545347019163466e-04,-4.130584471915072e-06
	8.258080403909295e-04,-2.419099695359717e-06
	0.000000000000000e+00,7.816055106969771e-06
	-1.000000000000000e-12,-1.255195095930461e-06
	-8.258080393909295e-04,-4.141760315679592e-06
	0.000000000000000e+00,2.372950498572653e-06
	1.580342742307276e-03,1.078595306463081e-05
	-2.140971057813635e-03,-1.712581914831018e-05
	-7.545347019163466e-04,4.130584471915072e-06
2		1.004615790278395e+08,0.000000000000000e+00
	0.000000000000000e+00,0.000000000000000e+00
	0.000000000000000e+00,0.000000000000000e+00
	1.000000000000000e+00,0.000000000000000e+00
	0.000000000000000e+00,0.000000000000000e+00
	0.000000000000000e+00,0.000000000000000e+00
	0.000000000000000e+00,0.000000000000000e+00
	0.000000000000000e+00,0.000000000000000e+00
	0.000000000000000e+00,0.000000000000000e+00
	1.315163017422706e-03,2.214374531860550e-06
	0.000000000000000e+00,-2.378420714418934e-06
	-1.386635007814537e-12,-1.481533325347949e-06
	-1.315163016036071e-03,1.645579507906333e-06
	7.545347019163466e-04,-4.140106452523712e-06
	0.000000000000000e+00,9.541527028135918e-06
	0.000000000000000e+00,-1.261314123088495e-06
	-7.545347019163466e-04,-4.140106452523712e-06
	8.258080403909295e-04,-2.424676296091696e-06
	0.000000000000000e+00,7.834072974821318e-06
	-1.000000000000000e-12,-1.258088619460793e-06
	-8.258080393909295e-04,-4.151308059268831e-06
	0.000000000000000e+00,2.378420714418934e-06
	1.580342742307276e-03,1.081081725434183e-05
	-2.140971057813635e-03,-1.716529823872609e-05
	-7.545347019163466e-04,4.140106452523712e-06
3		1.006931668851804e+08,0.000000000000000e+00
	0.000000000000000e+00,0.000000000000000e+00
	0.000000000000000e+00,0.000000000000000e+00
	1.000000000000000e+00,0.000000000000000e+00
	0.000000000000000e+00,0.000000000000000e+00
	0.000000000000000e+00,0.000000000000000e+00
	0.000000000000000e+00,0.000000000000000e+00
	0.000000000000000e+00,0.000000000000000e+00
	0.000000000000000e+00,0.000000000000000e+00
	1.315163017422706e-03,2.219479192350126e-06
	0.000000000000000e+00,-2.383903540415077e-06
	-1.386635007814537e-12,-1.484948612383218e-06
	-1.315163016036071e-03,1.649372960448169e-06
	7.545347019163466e-04,-4.149650383564627e-06
	0.000000000000000e+00,9.563522519562484e-06
	0.000000000000000e+00,-1.264221752433230e-06
	-7.545347019163466e-04,-4.149650383564627e-06
	8.258080403909295e-04,-2.430265752216026e-06
	0.000000000000000e+00,7.852132378147922e-06
	-1.000000000000000e-12,-1.260988813251746e-06
	-8.258080393909295e-04,-4.160877812680149e-06
	0.000000000000000e+00,2.383903540415077e-06
	1.580342742307276e-03,1.083573876192975e-05
	-2.140971057813635e-03,-1.720486833784450e-05
	-7.545347019163466e-04,4.149650383564627e-06
4		1.009252886076684e+08,0.000000000000000e+00
	0.000000000000000e+00,0.000000000000000e+00
	0.000000000000000e+00,0.000000000000000e+00
	1.000000000000000e+00,0.000000000000000e+00
	0.000000000000000e+00,0.000000000000000e+00
	0.000000000000000e+00,0.000000000000000e+00
	0.000000000000000e+00,0.000000000000000e+00
	0.000000000000000e+00,0.000000000000000e+00
	0.000000000000000e+00,0.000000000000000e+00
	1.315163017422706e-03,2.224595620297437e-06
	0.000000000000000e+00,-2.389399005630482e-06
	-1.386635007814537e-12,-1.488371772468208e-06
	-1.315163016036071e-03,1.653175157801253e-06
	7.545347019163466e-04,-4.159216315638792e-06
	0.000000000000000e+00,9.585568715833432e-06
	0.000000000000000e+00,-1.267136084555849e-06
	-7.545347019163466e-04,-4.159216315638791e-06
	8.258080403909295e-04,-2.435868093367451e-06
	0.000000000000000e+00,7.870233412698738e-06
	-1.000000000000000e-12,-1.263895692679859e-06
	-8.258080393909295e-04,-4.170469626651427e-06
	0.000000000000000e+00,2.389399005630482e-06
	1.580342742307276e-03,1.086071771952592e-05
	-2.140971057813635e-03,-1.724452965546216e-05
	-7.545347019163466e-04,4.159216315638792e-06
5		1.011579454259898e+08,0.000000000000000e+00
	0.000000000000000e+00,0.000000000000000e+00
	0.000000000000000e+00,0.000000000000000e+00
	1.000000000000000e+00,0.000000000000000e+00
	0.000000000000000e+00,0.000000000000000e+00
	0.000000000000000e+00,0.000000000000000e+00
	0.000000000000000e+00,0.000000000000000e+00
	0.000000000000000e+00,0.000000000000000e+00
	0.000000000000000e+00,0.000000000000000e+00
	1.315163017422706e-03,2.229723842829276e-06
	0.000000000000000e+00,-2.394907139201556e-06
	-1.386635007814537e-12,-1.491802823752173e-06
	-1.315163016036071e-03,1.656986120124454e-06
	7.545347019163466e-04,-4.168804299463823e-06
	0.000000000000000e+00,9.607665733835493e-06
	0.000000000000000e+00,-1.270057134907847e-06
	-7.545347019163466e-04,-4.168804299463822e-06
	8.258080403909295e-04,-2.441483349249022e-06
	0.000000000000000e+00,7.888376174443647e-06
	-1.000000000000000e-12,-1.266809273157118e-06
	-8.258080393909295e-04,-4.180083552037506e-06
	0.000000000000000e+00,2.394907139201556e-06
	1.580342742307276e-03,1.088575425956630e-05
	-2.140971057813635e-03,-1.728428240185939e-05
	-7.545347019163466e-04,4.168804299463823e-06
6		1.013911385736679e+08,0.000000000000000e+00
	0.000000000000000e+00,0.000000000000000e+00
	0.000000000000000e+00,0.000000000000000e+00
	1.000000000000000e+00,0.000000000000000e+00
	0.000000000000000e+00,0.000000000000000e+00
	0.000000000000000e+00,0.000000000000000e+00
	0.000000000000000e+00,0.000000000000000e+00
	0.000000000000000e+00,0.000000000000000e+00
	0.000000000000000e+00,0.000000000000000e+00
	1.315163017422706e-03,2.234863887134966e-06
	0.000000000000000e+00,-2.400427970331878e-06
	-1.386635007814537e-12,-1.495241784426204e-06
	-1.315163016036071e-03,1.660805867623116e-06
	7.545347019163466e-04,-4.178414385874258e-06
	0.000000000000000e+00,9.629813690724861e-06
	0.000000000000000e+00,-1.272984918976345e-06
	-7.545347019163466e-04,-4.178414385874258e-06
	8.258080403909295e-04,-2.447111549632268e-06
	0.000000000000000e+00,7.906560759573770e-06
	-1.000000000000000e-12,-1.269729570131036e-06
	-8.258080393909295e-04,-4.189719639810465e-06
	0.000000000000000e+00,2.400427970331878e-06
	1.580342742307276e-03,1.091084851479211e-05
	-2.140971057813635e-03,-1.732412678780133e-05
	-7.545347019163466e-04,4.178414385874258e-06
7		1.016248692870695e+08,0.000000000000000e+00
	0.000000000000000e+00,0.000000000000000e+00
	0.000000000000000e+00,0.000000000000000e+00
	1.000000000000000e+00,0.000000000000000e+00
	0.000000000000000e+00,0.000000000000000e+00
	0.000000000000000e+00,0.000000000000000e+00
	0.000000000000000e+00,0.000000000000000e+00
	0.000000000000000e+00,0.000000000000000e+00
	0.000000000000000e+00,0.000000000000000e+00
	1.315163017422706e-03,2.240015780466512e-06
	0.000000000000000e+00,-2.405961528292342e-06
	-1.386635007814537e-12,-1.498688672723330e-06
	-1.315163016036071e-03,1.664634420549160e-06
	7.545347019163466e-04,-4.188046625821819e-06
	0.000000000000000e+00,9.652012703927799e-06
	0.000000000000000e+00,-1.275919452284161e-06
	-7.545347019163466e-04,-4.188046625821819e-06
	8.258080403909295e-04,-2.452752724357348e-06
	0.000000000000000e+00,7.924787264501967e-06
	-1.000000000000000e-12,-1.272656599084737e-06
	-8.258080393909295e-04,-4.199377941059880e-06
	0.000000000000000e+00,2.405961528292342e-06
	1.580342742307276e-03,1.093600061825060e-05
	-2.140971057813635e-03,-1.736406302453893e-05
	-7.545347019163466e-04,4.188046625821819e-06
8		1.018591388054117e+08,0.000000000000000e+00
	0.000000000000000e+00,0.000000000000000e+00
	0.000000000000000e+00,0.000000000000000e+00
	1.000000000000000e+00,0.000000000000000e+00
	0.000000000000000e+00,0.000000000000000e+00
	0.000000000000000e+00,0.000000000000000e+00
	0.000000000000000e+00,0.000000000000000e+00
	0.000000000000000e+00,0.000000000000000e+00
	0.000000000000000e+00,0.000000000000000e+00
	1.315163017422706e-03,2.245179550138740e-06
	0.000000000000000e+00,-2.411507842421323e-06
	-1.386635007814537e-12,-1.502143506918609e-06
	-1.315163016036071e-03,1.668471799201192e-06
	7.545347019163466e-04,-4.197701070375682e-06
	0.000000000000000e+00,9.674262891141264e-06
	0.000000000000000e+00,-1.278860750389900e-06
	-7.545347019163466e-04,-4.197701070375682e-06
	8.258080403909295e-04,-2.458406903333209e-06
	0.000000000000000e+00,7.943055785863350e-06
	-1.000000000000000e-12,-1.275590375537038e-06
	-8.258080393909295e-04,-4.209058506993104e-06
	0.000000000000000e+00,2.411507842421323e-06
	1.580342742307276e-03,1.096121070329572e-05
	-2.140971057813635e-03,-1.740409132381014e-05
	-7.545347019163466e-04,4.197701070375682e-06
9		1.020939483707680e+08,0.000000000000000e+00
	0.000000000000000e+00,0.000000000000000e+00
	0.000000000000000e+00,0.000000000000000e+00
	1.000000000000000e+00,0.000000000000000e+00
	0.000000000000000e+00,0.000000000000000e+00
	0.000000000000000e+00,0.000000000000000e+00
	0.000000000000000e+00,0.000000000000000e+00
	0.000000000000000e+00,0.000000000000000e+00
	0.000000000000000e+00,0.000000000000000e+00
	1.315163017422706e-03,2.250355223529441e-06
	0.000000000000000e+00,-2.417066942124826e-06
	-1.386635007814537e-12,-1.505606305329227e-06
	-1.315163016036071e-03,1.672318023924612e-06
	7.545347019163466e-04,-4.207377770722753e-06
	0.000000000000000e+00,9.696564370333536e-06
	0.000000000000000e+00,-1.281808828888030e-06
	-7.545347019163466e-04,-4.207377770722752e-06
	8.258080403909295e-04,-2.464074116537744e-06
	0.000000000000000e+00,7.961366420515805e-06
	-1.000000000000000e-12,-1.278530915042528e-06
	-8.258080393909295e-04,-4.218761388935531e-06
	0.000000000000000e+00,2.417066942124826e-06
	1.580342742307276e-03,1.098647890358884e-05
	-2.140971057813635e-03,-1.744421189784104e-05
	-7.545347019163466e-04,4.207377770722753e-06
10		1.023292992280754e+08,0.000000000000000e+00
	0.000000000000000e+00,0.000000000000000e+00
	0.000000000000000e+00,0.000000000000000e+00
	1.000000000000000e+00,0.000000000000000e+00
	0.000000000000000e+00,0.000000000000000e+00
	0.000000000000000e+00,0.000000000000000e+00
	0.000000000000000e+00,0.000000000000000e+00
	0.000000000000000e+00,0.000000000000000e+00
	0.000000000000000e+00,0.000000000000000e+00
	1.315163017422706e-03,2.255542828079522e-06
	0.000000000000000e+00,-2.422638856876645e-06
	-1.386635007814537e-12,-1.509077086314598e-06
	-1.315163016036071e-03,1.676173115111721e-06
	7.545347019163466e-04,-4.217076778167932e-06
	0.000000000000000e+00,9.718917259744834e-06
	0.000000000000000e+00,-1.284763703408970e-06
	-7.545347019163466e-04,-4.217076778167931e-06
	8.258080403909295e-04,-2.469754394017955e-06
	0.000000000000000e+00,7.979719265540490e-06
	-1.000000000000000e-12,-1.281478233191656e-06
	-8.258080393909295e-04,-4.228486638330878e-06
	0.000000000000000e+00,2.422638856876645e-06
	1.580342742307276e-03,1.101180535309944e-05
	-2.140971057813635e-03,-1.748442495934689e-05
	-7.545347019163466e-04,4.217076778167932e-06
11		1.025651926251407e+08,0.000000000000000e+00
	0.000000000000000e+00,0.000000000000000e+00
	0.000000000000000e+00,0.000000000000000e+00
	1.000000000000000e+00,0.000000000000000e+00
	0.000000000000000e+00,0.000000000000000e+00
	0.000000000000000e+00,0.000000000000000e+00
	0.000000000000000e+00,0.000000000000000e+00
	0.000000000000000e+00,0.000000000000000e+00
	0.000000000000000e+00,0.000000000000000e+00
	1.315163017422706e-03,2.260742391293144e-06
	0.000000000000000e+00,-2.428223616218516e-06
	-1.386635007814537e-12,-1.512555868276456e-06
	-1.315163016036071e-03,1.680037093201828e-06
	7.545347019163466e-04,-4.226798144134391e-06
	0.000000000000000e+00,9.741321677887954e-06
	0.000000000000000e+00,-1.287725389619172e-06
	-7.545347019163466e-04,-4.226798144134390e-06
	8.258080403909295e-04,-2.475447765890105e-06
	0.000000000000000e+00,7.998114418242363e-06
	-1.000000000000000e-12,-1.284432345610809e-06
	-8.258080393909295e-04,-4.238234306741449e-06
	0.000000000000000e+00,2.428223616218516e-06
	1.580342742307276e-03,1.103719018610582e-05
	-2.140971057813635e-03,-1.752473072153335e-05
	-7.545347019163466e-04,4.226798144134391e-06
12		1.028016298126473e+08,0.000000000000000e+00
	0.000000000000000e+00,0.000000000000000e+00
	0.000000000000000e+00,0.000000000000000e+00
	1.000000000000000e+00,0.000000000000000e+00
	0.000000000000000e+00,0.000000000000000e+00
	0.000000000000000e+00,0.000000000000000e+00
	0.000000000000000e+00,0.000000000000000e+00
	0.000000000000000e+00,0.000000000000000e+00
	0.000000000000000e+00,0.000000000000000e+00
	1.315163017422706e-03,2.265953940737875e-06
	0.000000000000000e+00,-2.433821249760278e-06
	-1.386635007814537e-12,-1.516042669658958e-06
	-1.315163016036071e-03,1.683909978681361e-06
	7.545347019163466e-04,-4.236541920163845e-06
	0.000000000000000e+00,9.763777743548889e-06
	0.000000000000000e+00,-1.290693903221200e-06
	-7.545347019163466e-04,-4.236541920163845e-06
	8.258080403909295e-04,-2.481154262339886e-06
	0.000000000000000e+00,8.016551976150692e-06
	-1.000000000000000e-12,-1.287393267962397e-06
	-8.258080393909295e-04,-4.248004445848410e-06
	0.000000000000000e+00,2.433821249760278e-06
	1.580342742307276e-03,1.106263353719585e-05
	-2.140971057813635e-03,-1.756512939809757e-05
	-7.545347019163466e-04,4.236541920163845e-06
13		1.030386120441616e+08,0.000000000000000e+00
	0.000000000000000e+00,0.000000000000000e+00
	0.000000000000000e+00,0.000000000000000e+00
	1.000000000000000e+00,0.000000000000000e+00
	0.000000000000000e+00,0.000000000000000e+00
	0.000000000000000e+00,0.000000000000000e+00
	0.000000000000000e+00,0.000000000000000e+00
	0.000000000000000e+00,0.000000000000000e+00
	0.000000000000000e+00,0.000000000000000e+00
	1.315163017422706e-03,2.271177504044831e-06
	0.000000000000000e+00,-2.439431787180027e-06
	-1.386635007814537e-12,-1.519537508948776e-06
	-1.315163016036071e-03,1.687791792083972e-06
	7.545347019163466e-04,-4.246308157916824e-06
	0.000000000000000e+00,9.786285575787467e-06
	0.000000000000000e+00,-1.293669259953819e-06
	-7.545347019163466e-04,-4.246308157916824e-06
	8.258080403909295e-04,-2.486873913622575e-06
	0.000000000000000e+00,8.035032037019576e-06
	-1.000000000000000e-12,-1.290361015944935e-06
	-8.258080393909295e-04,-4.257797107452066e-06
	0.000000000000000e+00,2.439431787180027e-06
	1.580342742307276e-03,1.108813554126764e-05
	-2.140971057813635e-03,-1.760562120322930e-05
	-7.545347019163466e-04,4.246308157916824e-06
14		1.032761405761397e+08,0.000000000000000e+00
	0.000000000000000e+00,0.000000000000000e+00
	0.000000000000000e+00,0.000000000000000e+00
	1.000000000000000e+00,0.000000000000000e+00
	0.000000000000000e+00,0.000000000000000e+00
	0.000000000000000e+00,0.000000000000000e+00
	0.000000000000000e+00,0.000000000000000e+00
	0.000000000000000e+00,0.000000000000000e+00
	0.000000000000000e+00,0.000000000000000e+00
	1.315163017422706e-03,2.276413108908824e-06
	0.000000000000000e+00,-2.445055258224273e-06
	-1.386635007814537e-12,-1.523040404675202e-06
	-1.315163016036071e-03,1.691682553990651e-06
	7.545347019163466e-04,-4.256096909172951e-06
	0.000000000000000e+00,9.808845293937973e-06
	0.000000000000000e+00,-1.296651475592073e-06
	-7.545347019163466e-04,-4.256096909172950e-06
	8.258080403909295e-04,-2.492606750063194e-06
	0.000000000000000e+00,8.053554698828458e-06
	-1.000000000000000e-12,-1.293335605293129e-06
	-8.258080393909295e-04,-4.267612343472136e-06
	0.000000000000000e+00,2.445055258224273e-06
	1.580342742307276e-03,1.111369633353029e-05
	-2.140971057813635e-03,-1.764620635161206e-05
	-7.545347019163466e-04,4.256096909172951e-06
15		1.035142166679343e+08,0.000000000000000e+00
	0.000000000000000e+00,0.000000000000000e+00
	0.000000000000000e+00,0.000000000000000e+00
	1.000000000000000e+00,0.000000000000000e+00
	0.000000000000000e+00,0.000000000000000e+00
	0.000000000000000e+00,0.000000000000000e+00
	0.000000000000000e+00,0.000000000000000e+00
	0.000000000000000e+00,0.000000000000000e+00
	0.000000000000000e+00,0.000000000000000e+00
	1.315163017422706e-03,2.281660783088510e-06
	0.000000000000000e+00,-2.450691692708101e-06
	-1.386635007814537e-12,-1.526551375410239e-06
	-1.315163016036071e-03,1.695582285029829e-06
	7.545347019163466e-04,-4.265908225831207e-06
	0.000000000000000e+00,9.831457017609786e-06
	0.000000000000000e+00,-1.299640565947372e-06
	-7.545347019163466e-04,-4.265908225831206e-06
	8.258080403909295e-04,-2.498352802056668e-06
	0.000000000000000e+00,8.072120059782645e-06
	-1.000000000000000e-12,-1.296317051777954e-06
	-8.258080393909295e-04,-4.277450205948022e-06
	0.000000000000000e+00,2.450691692708101e-06
	1.580342742307276e-03,1.113931604950455e-05
	-2.140971057813635e-03,-1.768688505842427e-05
	-7.545347019163466e-04,4.265908225831207e-06
16		1.037528415818012e+08,0.000000000000000e+00
	0.000000000000000e+00,0.000000000000000e+00
	0.000000000000000e+00,0.000000000000000e+00
	1.000000000000000e+00,0.000000000000000e+00
	0.000000000000000e+00,0.000000000000000e+00
	0.000000000000000e+00,0.000000000000000e+00
	0.000000000000000e+00,0.000000000000000e+00
	0.000000000000000e+00,0.000000000000000e+00
	0.000000000000000e+00,0.000000000000000e+00
	1.315163017422706e-03,2.286920554406536e-06
	0.000000000000000e+00,-2.456341120515323e-06
	-1.386635007814537e-12,-1.530070439768704e-06
	-1.315163016036071e-03,1.699491005877491e-06
	7.545347019163466e-04,-4.275742159910218e-06
	0.000000000000000e+00,9.854120866688012e-06
	0.000000000000000e+00,-1.302636546867577e-06
	-7.545347019163466e-04,-4.275742159910217e-06
	8.258080403909295e-04,-2.504112100067996e-06
	0.000000000000000e+00,8.090728218313832e-06
	-1.000000000000000e-12,-1.299305371206743e-06
	-8.258080393909295e-04,-4.287310747039093e-06
	0.000000000000000e+00,2.456341120515323e-06
	1.580342742307276e-03,1.116499482502363e-05
	-2.140971057813635e-03,-1.772765753934038e-05
	-7.545347019163466e-04,4.275742159910218e-06
17		1.039920165829058e+08,0.000000000000000e+00
	0.000000000000000e+00,0.000000000000000e+00
	0.000000000000000e+00,0.000000000000000e+00
	1.000000000000000e+00,0.000000000000000e+00
	0.000000000000000e+00,0.000000000000000e+00
	0.000000000000000e+00,0.000000000000000e+00
	0.000000000000000e+00,0.000000000000000e+00
	0.000000000000000e+00,0.000000000000000e+00
	0.000000000000000e+00,0.000000000000000e+00
	1.315163017422706e-03,2.292192450749685e-06
	0.000000000000000e+00,-2.462003571598646e-06
	-1.386635007814537e-12,-1.533597616408328e-06
	-1.315163016036071e-03,1.703408737257288e-06
	7.545347019163466e-04,-4.285598763548524e-06
	0.000000000000000e+00,9.876836961334128e-06
	0.000000000000000e+00,-1.305639434237080e-06
	-7.545347019163466e-04,-4.285598763548523e-06
	8.258080403909295e-04,-2.509884674632403e-06
	0.000000000000000e+00,8.109379273080627e-06
	-1.000000000000000e-12,-1.302300579423268e-06
	-8.258080393909295e-04,-4.297194019024956e-06
	0.000000000000000e+00,2.462003571598646e-06
	1.580342742307276e-03,1.119073279623383e-05
	-2.140971057813635e-03,-1.776852401053204e-05
	-7.545347019163466e-04,4.285598763548524e-06
18		1.042317429393303e+08,0.000000000000000e+00
	0.000000000000000e+00,0.000000000000000e+00
	0.000000000000000e+00,0.000000000000000e+00
	1.000000000000000e+00,0.000000000000000e+00
	0.000000000000000e+00,0.000000000000000e+00
	0.000000000000000e+00,0.000000000000000e+00
	0.000000000000000e+00,0.000000000000000e+00
	0.000000000000000e+00,0.000000000000000e+00
	0.000000000000000e+00,0.000000000000000e+00
	1.315163017422706e-03,2.297476500069028e-06
	0.000000000000000e+00,-2.467679075979820e-06
	-1.386635007814537e-12,-1.537132924029848e-06
	-1.315163016036071e-03,1.707335499940641e-06
	7.545347019163466e-04,-4.295478089004855e-06
	0.000000000000000e+00,9.899605421986601e-06
	0.000000000000000e+00,-1.308649243976891e-06
	-7.545347019163466e-04,-4.295478089004855e-06
	8.258080403909295e-04,-2.515670556355502e-06
	0.000000000000000e+00,8.128073322969062e-06
	-1.000000000000000e-12,-1.305302692307826e-06
	-8.258080393909295e-04,-4.307100074305735e-06
	0.000000000000000e+00,2.467679075979820e-06
	1.580342742307276e-03,1.121653009959531e-05
	-2.140971057813635e-03,-1.780948468866919e-05
	-7.545347019163466e-04,4.295478089004855e-06
19		1.044720219220799e+08,0.000000000000000e+00
	0.000000000000000e+00,0.000000000000000e+00
	0.000000000000000e+00,0.000000000000000e+00
	1.000000000000000e+00,0.000000000000000e+00
	0.000000000000000e+00,0.000000000000000e+00
	0.000000000000000e+00,0.000000000000000e+00
	0.000000000000000e+00,0.000000000000000e+00
	0.000000000000000e+00,0.000000000000000e+00
	0.000000000000000e+00,0.000000000000000e+00
	1.315163017422706e-03,2.302772730380066e-06
	0.000000000000000e+00,-2.473367663749805e-06
	-1.386635007814537e-12,-1.540676381377115e-06
	-1.315163016036071e-03,1.711271314746854e-06
	7.545347019163466e-04,-4.305380188658413e-06
	0.000000000000000e+00,9.922426369361547e-06
	0.000000000000000e+00,-1.311665992044721e-06
	-7.545347019163466e-04,-4.305380188658412e-06
	8.258080403909295e-04,-2.521469775913464e-06
	0.000000000000000e+00,8.146810467093131e-06
	-1.000000000000000e-12,-1.308311725777319e-06
	-8.258080393909295e-04,-4.317028965402349e-06
	0.000000000000000e+00,2.473367663749805e-06
	1.580342742307276e-03,1.124238687188280e-05
	-2.140971057813635e-03,-1.785053979092128e-05
	-7.545347019163466e-04,4.305380188658413e-06
20		1.047128548050899e+08,0.000000000000000e+00
	0.000000000000000e+00,0.000000000000000e+00
	0.000000000000000e+00,0.000000000000000e+00
	1.000000000000000e+00,0.000000000000000e+00
	0.000000000000000e+00,0.000000000000000e+00
	0.000000000000000e+00,0.000000000000000e+00
	0.000000000000000e+00,0.000000000000000e+00
	0.000000000000000e+00,0.000000000000000e+00
	0.000000000000000e+00,0.000000000000000e+00
	1.315163017422706e-03,2.308081169762887e-06
	0.000000000000000e+00,-2.479069365068926e-06
	-1.386635007814537e-12,-1.544228007237186e-06
	-1.315163016036071e-03,1.715216202543225e-06
	7.545347019163466e-04,-4.315305115009143e-06
	0.000000000000000e+00,9.945299924453353e-06
	0.000000000000000e+00,-1.314689694435068e-06
	-7.545347019163466e-04,-4.315305115009142e-06
	8.258080403909295e-04,-2.527282364053172e-06
	0.000000000000000e+00,8.165590804795305e-06
	-1.000000000000000e-12,-1.311327695785343e-06
	-8.258080393909295e-04,-4.326980744956790e-06
	0.000000000000000e+00,2.479069365068926e-06
	1.580342742307276e-03,1.126830325018634e-05
	-2.140971057813635e-03,-1.789168953495837e-05
	-7.545347019163466e-04,4.315305115009143e-06
21		1.049542428652321e+08,0.000000000000000e+00
	0.000000000000000e+00,0.000000000000000e+00
	0.000000000000000e+00,0.000000000000000e+00
	1.000000000000000e+00,0.000000000000000e+00
	0.000000000000000e+00,0.000000000000000e+00
	0.000000000000000e+00,0.000000000000000e+00
	0.000000000000000e+00,0.000000000000000e+00
	0.000000000000000e+00,0.000000000000000e+00
	0.000000000000000e+00,0.000000000000000e+00
	1.315163017422706e-03,2.313401846362308e-06
	0.000000000000000e+00,-2.484784210167038e-06
	-1.386635007814537e-12,-1.547787820440428e-06
	-1.315163016036071e-03,1.719170184245158e-06
	7.545347019163466e-04,-4.325252920678017e-06
	0.000000000000000e+00,9.968226208535336e-06
	0.000000000000000e+00,-1.317720367179302e-06
	-7.545347019163466e-04,-4.325252920678016e-06
	8.258080403909295e-04,-2.533108351592392e-06
	0.000000000000000e+00,8.184414435647067e-06
	-1.000000000000000e-12,-1.314350618322272e-06
	-8.258080393909295e-04,-4.336955465732402e-06
	0.000000000000000e+00,2.484784210167038e-06
	1.580342742307276e-03,1.129427937191199e-05
	-2.140971057813635e-03,-1.793293413895232e-05
	-7.545347019163466e-04,4.325252920678017e-06
22		1.051961873823222e+08,0.000000000000000e+00
	0.000000000000000e+00,0.000000000000000e+00
	0.000000000000000e+00,0.000000000000000e+00
	1.000000000000000e+00,0.000000000000000e+00
	0.000000000000000e+00,0.000000000000000e+00
	0.000000000000000e+00,0.000000000000000e+00
	0.000000000000000e+00,0.000000000000000e+00
	0.000000000000000e+00,0.000000000000000e+00
	0.000000000000000e+00,0.000000000000000e+00
	1.315163017422706e-03,2.318734788388025e-06
	0.000000000000000e+00,-2.490512229343678e-06
	-1.386635007814537e-12,-1.551355839860617e-06
	-1.315163016036071e-03,1.723133280816270e-06
	7.545347019163466e-04,-4.335223658407310e-06
	0.000000000000000e+00,9.991205343160368e-06
	0.000000000000000e+00,-1.320758026345748e-06
	-7.545347019163466e-04,-4.335223658407310e-06
	8.258080403909295e-04,-2.538947769419927e-06
	0.000000000000000e+00,8.203281459449430e-06
	-1.000000000000000e-12,-1.317380509415339e-06
	-8.258080393909295e-04,-4.346953180614163e-06
	0.000000000000000e+00,2.490512229343678e-06
	1.580342742307276e-03,1.132031537478256e-05
	-2.140971057813635e-03,-1.797427382157789e-05
	-7.545347019163466e-04,4.335223658407310e-06
23		1.054386896391258e+08,0.000000000000000e+00
	0.000000000000000e+00,0.000000000000000e+00
	0.000000000000000e+00,0.000000000000000e+00
	1.000000000000000e+00,0.000000000000000e+00
	0.000000000000000e+00,0.000000000000000e+00
	0.000000000000000e+00,0.000000000000000e+00
	0.000000000000000e+00,0.000000000000000e+00
	0.000000000000000e+00,0.000000000000000e+00
	0.000000000000000e+00,0.000000000000000e+00
	1.315163017422706e-03,2.324080024114768e-06
	0.000000000000000e+00,-2.496253452968236e-06
	-1.386635007814537e-12,-1.554932084415035e-06
	-1.315163016036071e-03,1.727105513268504e-06
	7.545347019163466e-04,-4.345217381060882e-06
	0.000000000000000e+00,1.001423745016153e-05
	0.000000000000000e+00,-1.323802688039771e-06
	-7.545347019163466e-04,-4.345217381060881e-06
	8.258080403909295e-04,-2.544800648495793e-06
	0.000000000000000e+00,8.222191976233481e-06
	-1.000000000000000e-12,-1.320417385128726e-06
	-8.258080393909295e-04,-4.356973942608962e-06
	0.000000000000000e+00,2.496253452968236e-06
	1.580342742307276e-03,1.134641139683834e-05
	-2.140971057813635e-03,-1.801570880201399e-05
	-7.545347019163466e-04,4.345217381060882e-06
24		1.056817509213657e+08,0.000000000000000e+00
	0.000000000000000e+00,0.000000000000000e+00
	0.000000000000000e+00,0.000000000000000e+00
	1.000000000000000e+00,0.000000000000000e+00
	0.000000000000000e+00,0.000000000000000e+00
	0.000000000000000e+00,0.000000000000000e+00
	0.000000000000000e+00,0.000000000000000e+00
	0.000000000000000e+00,0.000000000000000e+00
	0.000000000000000e+00,0.000000000000000e+00
	1.315163017422706e-03,2.329437581882443e-06
	0.000000000000000e+00,-2.502007911480107e-06
	-1.386635007814537e-12,-1.558516573064577e-06
	-1.315163016036071e-03,1.731086902662241e-06
	7.545347019163466e-04,-4.355234141624455e-06
	0.000000000000000e+00,1.003732265165278e-05
	0.000000000000000e+00,-1.326854368403866e-06
	-7.545347019163466e-04,-4.355234141624454e-06
	8.258080403909295e-04,-2.550667019851369e-06
	0.000000000000000e+00,8.241146086260896e-06
	-1.000000000000000e-12,-1.323461261563645e-06
	-8.258080393909295e-04,-4.367017804845881e-06
	0.000000000000000e+00,2.502007911480107e-06
	1.580342742307276e-03,1.137256757643785e-05
	-2.140971057813635e-03,-1.805723929994475e-05
	-7.545347019163466e-04,4.355234141624455e-06
25		1.059253725177288e+08,0.000000000000000e+00
	0.000000000000000e+00,0.000000000000000e+00
	0.000000000000000e+00,0.000000000000000e+00
	1.000000000000000e+00,0.000000000000000e+00
	0.000000000000000e+00,0.000000000000000e+00
	0.000000000000000e+00,0.000000000000000e+00
	0.000000000000000e+00,0.000000000000000e+00
	0.000000000000000e+00,0.000000000000000e+00
	0.000000000000000e+00,0.000000000000000e+00
	1.315163017422706e-03,2.334807490096289e-06
	0.000000000000000e+00,-2.507775635388857e-06