Title: * GA CMOS Amp | W=1e-06 L=9.65906628281838e-07 Vbias=0.6083490608387297
Date: Mon Sep  8 20:14:10 2025
Plotname: Operating Point
Flags: real nocompression
No. Variables: 2
No. Points:            1
Offset:    0.0000000000000000e+00
Command: Linear Technology Corporation LTspice
Variables:
	0	V(out)	voltage
	1	V(g)	voltage
Values:
0		1.799996992610632e+00
	6.083490608387296e-01
