Title: * Amplificador CMOS - W=1.0253840466313727e-05 L=8.704395258465872e-07 Vbias=1.0061605512999139
Date: Wed Jul 30 15:49:40 2025
Plotname: Operating Point
Flags: real
No. Variables: 12
No. Points:            1
Offset:    0.0000000000000000e+00
Command: Linear Technology Corporation LTspice
Variables:
	0	V(out)	voltage
	1	V(in)	voltage
	2	V(bias)	voltage
	3	V(vdd)	voltage
	4	Id(M1)	device_current
	5	Ig(M1)	device_current
	6	Ib(M1)	device_current
	7	Is(M1)	device_current
	8	I(Rload)	device_current
	9	I(Vbias)	device_current
	10	I(Vin)	device_current
	11	I(Vdd)	device_current
Values:
0		1.799999973961606e+00
	0.000000000000000e+00
	1.006160551299914e+00
	1.800000000000000e+00
	2.603839396623298e-12
	0.000000000000000e+00
	-2.826160525261520e-12
	2.223211286382223e-13
	-2.603839410753039e-12
	-2.223211286382219e-13
	0.000000000000000e+00
	-2.603839398870184e-12
