Title: * GA CMOS Amp | W=2.4820888676894923e-06 L=9.045742674560075e-07 Vbias=1.4549690766287047
Date: Sat Sep  6 22:11:26 2025
Plotname: AC Analysis
Flags: complex forward log
No. Variables: 13
No. Points:          901
Offset:    0.0000000000000000e+00
Command: Linear Technology Corporation LTspice
Variables:
	0	frequency	frequency
	1	V(out)	voltage
	2	V(g)	voltage
	3	V(vdd)	voltage
	4	V(m1#dbody)	voltage
	5	V(m1#sbody)	voltage
	6	Id(M1)	device_current
	7	Ig(M1)	device_current
	8	Ib(M1)	device_current
	9	Is(M1)	device_current
	10	I(Rload)	device_current
	11	I(Vg)	device_current
	12	I(Vdd)	device_current
Values:
0		1.000000000000000e+00,0.000000000000000e+00
	-2.550989081414968e-01,1.281273814787420e-09
	1.000000000000000e+00,0.000000000000000e+00
	0.000000000000000e+00,0.000000000000000e+00
	6.053691071671994e-05,1.320198233896016e-13
	6.053691262995696e-05,1.444997789535881e-13
	2.550989081414968e-05,-1.281273814787420e-13
	3.678622889667234e-05,5.037057544401941e-13
	-3.228635329949287e-05,-7.623681763749629e-14
	-3.000976641132916e-05,-2.993415553239559e-13
	-2.550989081414969e-05,1.281273814787420e-13
	-3.678622889680128e-05,-5.037057544401941e-13
	-2.550989081414969e-05,1.281273814787420e-13
1		1.023292992280754e+00,0.000000000000000e+00
	-2.550989081414968e-01,1.311118515864796e-09
	1.000000000000000e+00,0.000000000000000e+00
	0.000000000000000e+00,0.000000000000000e+00
	6.053691071671994e-05,1.350949601167221e-13
	6.053691262995696e-05,1.478656111893247e-13
	2.550989081414968e-05,-1.311118515864795e-13
	3.678622889667234e-05,5.154385686901410e-13
	-3.228635329949287e-05,-7.801260124223575e-14
	-3.000976641132916e-05,-3.063141158614258e-13
	-2.550989081414969e-05,1.311118515864796e-13
	-3.678622889680128e-05,-5.154385686901409e-13
	-2.550989081414969e-05,1.311118515864796e-13
2		1.047128548050899e+00,0.000000000000000e+00
	-2.550989081414968e-01,1.341658389333988e-09
	1.000000000000000e+00,0.000000000000000e+00
	0.000000000000000e+00,0.000000000000000e+00
	6.053691071671994e-05,1.382417259798896e-13
	6.053691262995696e-05,1.513098437293466e-13
	2.550989081414968e-05,-1.341658389333988e-13
	3.678622889667234e-05,5.274446752918434e-13
	-3.228635329949287e-05,-7.982974816077267e-14
	-3.000976641132916e-05,-3.134490881976719e-13
	-2.550989081414969e-05,1.341658389333988e-13
	-3.678622889680128e-05,-5.274446752918433e-13
	-2.550989081414969e-05,1.341658389333988e-13
3		1.071519305237606e+00,0.000000000000000e+00
	-2.550989081414968e-01,1.372909627840153e-09
	1.000000000000000e+00,0.000000000000000e+00
	0.000000000000000e+00,0.000000000000000e+00
	6.053691071671994e-05,1.414617894360173e-13
	6.053691262995696e-05,1.548343027513364e-13
	2.550989081414968e-05,-1.372909627840153e-13
	3.678622889667234e-05,5.397304400419412e-13
	-3.228635329949287e-05,-8.168922186845610e-14
	-3.000976641132916e-05,-3.207502553894697e-13
	-2.550989081414969e-05,1.372909627840153e-13
	-3.678622889680128e-05,-5.397304400419409e-13
	-2.550989081414969e-05,1.372909627840153e-13
4		1.096478196143185e+00,0.000000000000000e+00
	-2.550989081414968e-01,1.404888801203606e-09
	1.000000000000000e+00,0.000000000000000e+00
	0.000000000000000e+00,0.000000000000000e+00
	6.053691071671994e-05,1.447568578053721e-13
	6.053691262995696e-05,1.584408569701192e-13
	2.550989081414968e-05,-1.404888801203607e-13
	3.678622889667234e-05,5.523023770155260e-13
	-3.228635329949287e-05,-8.359200828285884e-14
	-3.000976641132916e-05,-3.282214886123064e-13
	-2.550989081414969e-05,1.404888801203607e-13
	-3.678622889680128e-05,-5.523023770155260e-13
	-2.550989081414969e-05,1.404888801203607e-13
5		1.122018454301963e+00,0.000000000000000e+00
	-2.550989081414968e-01,1.437612865205361e-09
	1.000000000000000e+00,0.000000000000000e+00
	0.000000000000000e+00,0.000000000000000e+00
	6.053691071671994e-05,1.481286781768189e-13
	6.053691262995696e-05,1.621314186284803e-13
	2.550989081414968e-05,-1.437612865205360e-13
	3.678622889667234e-05,5.651671520199909e-13
	-3.228635329949287e-05,-8.553911628652422e-14
	-3.000976641132916e-05,-3.358667492129306e-13
	-2.550989081414969e-05,1.437612865205361e-13
	-3.678622889680128e-05,-5.651671520199908e-13
	-2.550989081414969e-05,1.437612865205361e-13
6		1.148153621496882e+00,0.000000000000000e+00
	-2.550989081414968e-01,1.471099170577301e-09
	1.000000000000000e+00,0.000000000000000e+00
	0.000000000000000e+00,0.000000000000000e+00
	6.053691071671994e-05,1.515790383341498e-13
	6.053691262995696e-05,1.659079445110612e-13
	2.550989081414968e-05,-1.471099170577302e-13
	3.678622889667234e-05,5.783315861293282e-13
	-3.228635329949287e-05,-8.753157826188876e-14
	-3.000976641132916e-05,-3.436900908097093e-13
	-2.550989081414969e-05,1.471099170577302e-13
	-3.678622889680128e-05,-5.783315861293280e-13
	-2.550989081414969e-05,1.471099170577302e-13
7		1.174897554939529e+00,0.000000000000000e+00
	-2.550989081414968e-01,1.505365472201782e-09
	1.000000000000000e+00,0.000000000000000e+00
	0.000000000000000e+00,0.000000000000000e+00
	6.053691071671994e-05,1.551097677039913e-13
	6.053691262995696e-05,1.697724369818731e-13
	2.550989081414968e-05,-1.505365472201782e-13
	3.678622889667234e-05,5.918026593007550e-13
	-3.228635329949287e-05,-8.957045063866514e-14
	-3.000976641132916e-05,-3.516956614419116e-13
	-2.550989081414969e-05,1.505365472201783e-13
	-3.678622889680128e-05,-5.918026593007548e-13
	-2.550989081414969e-05,1.505365472201783e-13
8		1.202264434617413e+00,0.000000000000000e+00
	-2.550989081414968e-01,1.540429938525492e-09
	1.000000000000000e+00,0.000000000000000e+00
	0.000000000000000e+00,0.000000000000000e+00
	6.053691071671994e-05,1.587227383257900e-13
	6.053691262995696e-05,1.737269450459767e-13
	2.550989081414968e-05,-1.540429938525492e-13
	3.678622889667234e-05,6.055875140755771e-13
	-3.228635329949287e-05,-9.165681445397525e-14
	-3.000976641132916e-05,-3.598877057690527e-13
	-2.550989081414969e-05,1.540429938525492e-13
	-3.678622889680128e-05,-6.055875140755771e-13
	-2.550989081414969e-05,1.540429938525492e-13
9		1.230268770812381e+00,0.000000000000000e+00
	-2.550989081414968e-01,1.576311161192609e-09
	1.000000000000000e+00,0.000000000000000e+00
	0.000000000000000e+00,0.000000000000000e+00
	6.053691071671994e-05,1.624198658443928e-13
	6.053691262995696e-05,1.777735654358917e-13
	2.550989081414968e-05,-1.576311161192609e-13
	3.678622889667234e-05,6.196934593662607e-13
	-3.228635329949287e-05,-9.379177592553022e-14
	-3.000976641132916e-05,-3.682705673214696e-13
	-2.550989081414969e-05,1.576311161192609e-13
	-3.678622889680128e-05,-6.196934593662606e-13
	-2.550989081414969e-05,1.576311161192609e-13
10		1.258925411794167e+00,0.000000000000000e+00
	-2.550989081414968e-01,1.613028164902335e-09
	1.000000000000000e+00,0.000000000000000e+00
	0.000000000000000e+00,0.000000000000000e+00
	6.053691071671994e-05,1.662031105257473e-13
	6.053691262995696e-05,1.819144437233120e-13
	2.550989081414968e-05,-1.613028164902335e-13
	3.678622889667234e-05,6.341279743317129e-13
	-3.228635329949287e-05,-9.597646703816181e-14
	-3.000976641132916e-05,-3.768486908033175e-13
	-2.550989081414969e-05,1.613028164902335e-13
	-3.678622889680128e-05,-6.341279743317127e-13
	-2.550989081414969e-05,1.613028164902335e-13
11		1.288249551693134e+00,0.000000000000000e+00
	-2.550989081414968e-01,1.650600417496045e-09
	1.000000000000000e+00,0.000000000000000e+00
	0.000000000000000e+00,0.000000000000000e+00
	6.053691071671994e-05,1.700744782962609e-13
	6.053691262995696e-05,1.861517754567168e-13
	2.550989081414968e-05,-1.650600417496045e-13
	3.678622889667234e-05,6.488987123428319e-13
	-3.228635329949287e-05,-9.821204614401577e-14
	-3.000976641132916e-05,-3.856266244492116e-13
	-2.550989081414969e-05,1.650600417496045e-13
	-3.678622889680128e-05,-6.488987123428317e-13
	-2.550989081414969e-05,1.650600417496045e-13
12		1.318256738556407e+00,0.000000000000000e+00
	-2.550989081414968e-01,1.689047840279389e-09
	1.000000000000000e+00,0.000000000000000e+00
	0.000000000000000e+00,0.000000000000000e+00
	6.053691071671994e-05,1.740360218063689e-13
	6.053691262995696e-05,1.904878073254787e-13
	2.550989081414968e-05,-1.689047840279390e-13
	3.678622889667234e-05,6.640135050404246e-13
	-3.228635329949287e-05,-1.004996985767254e-13
	-3.000976641132916e-05,-3.946090224357603e-13
	-2.550989081414969e-05,1.689047840279389e-13
	-3.678622889680128e-05,-6.640135050404244e-13
	-2.550989081414969e-05,1.689047840279389e-13
13		1.348962882591653e+00,0.000000000000000e+00
	-2.550989081414968e-01,1.728390818584842e-09
	1.000000000000000e+00,0.000000000000000e+00
	0.000000000000000e+00,0.000000000000000e+00
	6.053691071671994e-05,1.780898415188779e-13
	6.053691262995696e-05,1.949248383510889e-13
	2.550989081414968e-05,-1.728390818584842e-13
	3.678622889667234e-05,6.794803664876478e-13
	-3.228635329949287e-05,-1.028406372798912e-13
	-3.000976641132916e-05,-4.038006473492724e-13
	-2.550989081414969e-05,1.728390818584842e-13
	-3.678622889680128e-05,-6.794803664876477e-13
	-2.550989081414969e-05,1.728390818584842e-13
14		1.380384264602885e+00,0.000000000000000e+00
	-2.550989081414968e-01,1.768650212580265e-09
	1.000000000000000e+00,0.000000000000000e+00
	0.000000000000000e+00,0.000000000000000e+00
	6.053691071671994e-05,1.822380868226578e-13
	6.053691262995696e-05,1.994652211061281e-13
	2.550989081414968e-05,-1.768650212580265e-13
	3.678622889667234e-05,6.953074974191686e-13
	-3.228635329949287e-05,-1.052361034501995e-13
	-3.000976641132916e-05,-4.132063727109425e-13
	-2.550989081414969e-05,1.768650212580265e-13
	-3.678622889680128e-05,-6.953074974191685e-13
	-2.550989081414969e-05,1.768650212580265e-13
15		1.412537544622754e+00,0.000000000000000e+00
	-2.550989081414968e-01,1.809847368329251e-09
	1.000000000000000e+00,0.000000000000000e+00
	0.000000000000000e+00,0.000000000000000e+00
	6.053691071671994e-05,1.864829571722774e-13
	6.053691262995696e-05,2.041113629616321e-13
	2.550989081414968e-05,-1.809847368329251e-13
	3.678622889667234e-05,7.115032895893038e-13
	-3.228635329949287e-05,-1.076873671955217e-13
	-3.000976641132916e-05,-4.228311855608570e-13
	-2.550989081414969e-05,1.809847368329251e-13
	-3.678622889680128e-05,-7.115032895893037e-13
	-2.550989081414969e-05,1.809847368329251e-13
16		1.445439770745927e+00,0.000000000000000e+00
	-2.550989081414968e-01,1.852004129109087e-09
	1.000000000000000e+00,0.000000000000000e+00
	0.000000000000000e+00,0.000000000000000e+00
	6.053691071671994e-05,1.908267032541835e-13
	6.053691262995696e-05,2.088657273635115e-13
	2.550989081414968e-05,-1.852004129109087e-13
	3.678622889667234e-05,7.280763302214383e-13
	-3.228635329949287e-05,-1.101957282083417e-13
	-3.000976641132916e-05,-4.326801891021880e-13
	-2.550989081414969e-05,1.852004129109087e-13
	-3.678622889680128e-05,-7.280763302214383e-13
	-2.550989081414969e-05,1.852004129109087e-13
17		1.479108388168207e+00,0.000000000000000e+00
	-2.550989081414968e-01,1.895142846992350e-09
	1.000000000000000e+00,0.000000000000000e+00
	0.000000000000000e+00,0.000000000000000e+00
	6.053691071671994e-05,1.952716281800449e-13
	6.053691262995696e-05,2.137308351387039e-13
	2.550989081414968e-05,-1.895142846992349e-13
	3.678622889667234e-05,7.450354065610860e-13
	-3.228635329949287e-05,-1.127625164548706e-13
	-3.000976641132916e-05,-4.427586054069805e-13
	-2.550989081414969e-05,1.895142846992350e-13
	-3.678622889680128e-05,-7.450354065610858e-13
	-2.550989081414969e-05,1.895142846992350e-13
18		1.513561248436208e+00,0.000000000000000e+00
	-2.550989081414968e-01,1.939286394698269e-09
	1.000000000000000e+00,0.000000000000000e+00
	0.000000000000000e+00,0.000000000000000e+00
	6.053691071671994e-05,1.998200887078930e-13
	6.053691262995696e-05,2.187092658317489e-13
	2.550989081414968e-05,-1.939286394698269e-13
	3.678622889667234e-05,7.623895105350020e-13
	-3.228635329949287e-05,-1.153890928802124e-13
	-3.000976641132916e-05,-4.530717781849628e-13
	-2.550989081414969e-05,1.939286394698269e-13
	-3.678622889680128e-05,-7.623895105350017e-13
	-2.550989081414969e-05,1.939286394698269e-13
19		1.548816618912481e+00,0.000000000000000e+00
	-2.550989081414968e-01,1.984458177720147e-09
	1.000000000000000e+00,0.000000000000000e+00
	0.000000000000000e+00,0.000000000000000e+00
	6.053691071671994e-05,2.044744964917055e-13
	6.053691262995696e-05,2.238036590724971e-13
	2.550989081414968e-05,-1.984458177720147e-13
	3.678622889667234e-05,7.801478435188216e-13
	-3.228635329949287e-05,-1.180768501299544e-13
	-3.000976641132916e-05,-4.636251756168526e-13
	-2.550989081414969e-05,1.984458177720147e-13
	-3.678622889680128e-05,-7.801478435188216e-13
	-2.550989081414969e-05,1.984458177720147e-13
20		1.584893192461113e+00,0.000000000000000e+00
	-2.550989081414968e-01,2.030682146735261e-09
	1.000000000000000e+00,0.000000000000000e+00
	0.000000000000000e+00,0.000000000000000e+00
	6.053691071671994e-05,2.092373193600979e-13
	6.053691262995696e-05,2.290167159756773e-13
	2.550989081414968e-05,-2.030682146735262e-13
	3.678622889667234e-05,7.983198212157526e-13
	-3.228635329949287e-05,-1.208272132885671e-13
	-3.000976641132916e-05,-4.744243932536593e-13
	-2.550989081414969e-05,2.030682146735262e-13
	-3.678622889680128e-05,-7.983198212157525e-13
	-2.550989081414969e-05,2.030682146735262e-13
21		1.621810097358929e+00,0.000000000000000e+00
	-2.550989081414968e-01,2.077982810303832e-09
	1.000000000000000e+00,0.000000000000000e+00
	0.000000000000000e+00,0.000000000000000e+00
	6.053691071671994e-05,2.141110826247984e-13
	6.053691262995696e-05,2.343512005730625e-13
	2.550989081414968e-05,-2.077982810303831e-13
	3.678622889667234e-05,8.169150786489040e-13
	-3.228635329949287e-05,-1.236416406350028e-13
	-3.000976641132916e-05,-4.854751569835182e-13
	-2.550989081414969e-05,2.077982810303832e-13
	-3.678622889680128e-05,-8.169150786489038e-13
	-2.550989081414969e-05,2.077982810303832e-13
22		1.659586907437560e+00,0.000000000000000e+00
	-2.550989081414968e-01,2.126385247863779e-09
	1.000000000000000e+00,0.000000000000000e+00
	0.000000000000000e+00,0.000000000000000e+00
	6.053691071671994e-05,2.190983704196017e-13
	6.053691262995696e-05,2.398099412789963e-13
	2.550989081414968e-05,-2.126385247863778e-13
	3.678622889667234e-05,8.359434752699047e-13
	-3.228635329949287e-05,-1.265216244158937e-13
	-3.000976641132916e-05,-4.967833260676332e-13
	-2.550989081414969e-05,2.126385247863779e-13
	-3.678622889680128e-05,-8.359434752699045e-13
	-2.550989081414969e-05,2.126385247863779e-13
23		1.698243652461743e+00,0.000000000000000e+00
	-2.550989081414968e-01,2.175915123028179e-09
	1.000000000000000e+00,0.000000000000000e+00
	0.000000000000000e+00,0.000000000000000e+00
	6.053691071671994e-05,2.242018270705113e-13
	6.053691262995696e-05,2.453958323900561e-13
	2.550989081414968e-05,-2.175915123028179e-13
	3.678622889667234e-05,8.554151001865135e-13
	-3.228635329949287e-05,-1.294686916367616e-13
	-3.000976641132916e-05,-5.083548962469339e-13
	-2.550989081414969e-05,2.175915123028179e-13
	-3.678622889680128e-05,-8.554151001865132e-13
	-2.550989081414969e-05,2.175915123028179e-13
24		1.737800828749374e+00,0.000000000000000e+00
	-2.550989081414968e-01,2.226598697192450e-09
	1.000000000000000e+00,0.000000000000000e+00
	0.000000000000000e+00,0.000000000000000e+00
	6.053691071671994e-05,2.294241584977957e-13
	6.053691262995696e-05,2.511118356196469e-13
	2.550989081414968e-05,-2.226598697192450e-13
	3.678622889667234e-05,8.753402775119981e-13
	-3.228635329949287e-05,-1.324844048716560e-13
	-3.000976641132916e-05,-5.201960029210972e-13
	-2.550989081414969e-05,2.226598697192450e-13
	-3.678622889680128e-05,-8.753402775119979e-13
	-2.550989081414969e-05,2.226598697192450e-13
25		1.778279410038922e+00,0.000000000000000e+00
	-2.550989081414968e-01,2.278462843458491e-09
	1.000000000000000e+00,0.000000000000000e+00
	0.000000000000000e+00,0.000000000000000e+00
	6.053691071671994e-05,2.347681336507034e-13
	6.053691262995696e-05,2.569609816683413e-13
	2.550989081414968e-05,-2.278462843458491e-13
	3.678622889667234e-05,8.957295718391184e-13
	-3.228635329949287e-05,-1.355703630916518e-13
	-3.000976641132916e-05,-5.323129244016176e-13
	-2.550989081414969e-05,2.278462843458491e-13
	-3.678622889680128e-05,-8.957295718391182e-13
	-2.550989081414969e-05,2.278462843458491e-13
26		1.819700858609982e+00,0.000000000000000e+00
	-2.550989081414968e-01,2.331535060883154e-09
	1.000000000000000e+00,0.000000000000000e+00
	0.000000000000000e+00,0.000000000000000e+00
	6.053691071671994e-05,2.402365859755961e-13
	6.053691262995696e-05,2.629463718307969e-13
	2.550989081414968e-05,-2.331535060883154e-13
	3.678622889667234e-05,9.165937938416101e-13
	-3.228635329949287e-05,-1.387282025126446e-13
	-3.000976641132916e-05,-5.447120852406500e-13
	-2.550989081414969e-05,2.331535060883154e-13
	-3.678622889680128e-05,-9.165937938416099e-13
	-2.550989081414969e-05,2.331535060883154e-13
27		1.862087136662866e+00,0.000000000000000e+00
	-2.550989081414968e-01,2.385843489058614e-09
	1.000000000000000e+00,0.000000000000000e+00
	0.000000000000000e+00,0.000000000000000e+00
	6.053691071671994e-05,2.458324149182804e-13
	6.053691262995696e-05,2.690711796401039e-13
	2.550989081414968e-05,-2.385843489058613e-13
	3.678622889667234e-05,9.379440060061498e-13
	-3.228635329949287e-05,-1.419595974628945e-13
	-3.000976641132916e-05,-5.574000596373939e-13
	-2.550989081414969e-05,2.385843489058614e-13
	-3.678622889680128e-05,-9.379440060061498e-13
	-2.550989081414969e-05,2.385843489058614e-13
28		1.905460717963246e+00,0.000000000000000e+00
	-2.550989081414968e-01,2.441416923032344e-09
	1.000000000000000e+00,0.000000000000000e+00
	0.000000000000000e+00,0.000000000000000e+00
	6.053691071671994e-05,2.515585874613311e-13
	6.053691262995696e-05,2.753386525504343e-13
	2.550989081414968e-05,-2.441416923032342e-13
	3.678622889667234e-05,9.597915284978305e-13
	-3.228635329949287e-05,-1.452662612707767e-13
	-3.000976641132916e-05,-5.703835749238197e-13
	-2.550989081414969e-05,2.441416923032344e-13
	-3.678622889680128e-05,-9.597915284978303e-13
	-2.550989081414969e-05,2.441416923032344e-13
29		1.949844599758044e+00,0.000000000000000e+00
	-2.550989081414968e-01,2.498284828574638e-09
	1.000000000000000e+00,0.000000000000000e+00
	0.000000000000000e+00,0.000000000000000e+00
	6.053691071671994e-05,2.574181396972252e-13
	6.053691262995696e-05,2.817521136588848e-13
	2.550989081414968e-05,-2.498284828574638e-13
	3.678622889667234e-05,9.821479451622639e-13
	-3.228635329949287e-05,-1.486499471732109e-13
	-3.000976641132916e-05,-5.836695151315891e-13
	-2.550989081414969e-05,2.498284828574638e-13
	-3.678622889680128e-05,-9.821479451622639e-13
	-2.550989081414969e-05,2.498284828574638e-13
30		1.995262314968878e+00,0.000000000000000e+00
	-2.550989081414968e-01,2.556477357801752e-09
	1.000000000000000e+00,0.000000000000000e+00
	0.000000000000000e+00,0.000000000000000e+00
	6.053691071671994e-05,2.634141784381188e-13
	6.053691262995696e-05,2.883149634674274e-13
	2.550989081414968e-05,-2.556477357801752e-13
	3.678622889667234e-05,1.005025109667487e-12
	-3.228635329949287e-05,-1.521124492452510e-13
	-3.000976641132916e-05,-5.972649246420606e-13
	-2.550989081414969e-05,2.556477357801752e-13
	-3.678622889680128e-05,-1.005025109667487e-12
	-2.550989081414969e-05,2.556477357801752e-13
31		2.041737944669527e+00,0.000000000000000e+00
	-2.550989081414968e-01,2.616025365162951e-09
	1.000000000000000e+00,0.000000000000000e+00
	0.000000000000000e+00,0.000000000000000e+00
	6.053691071671994e-05,2.695498828631191e-13
	6.053691262995696e-05,2.950306816858999e-13
	2.550989081414968e-05,-2.616025365162950e-13
	3.678622889667234e-05,1.028435151788936e-12
	-3.228635329949287e-05,-1.556556033513272e-13
	-3.000976641132916e-05,-6.111770119213134e-13
	-2.550989081414969e-05,2.616025365162951e-13
	-3.678622889680128e-05,-1.028435151788935e-12
	-2.550989081414969e-05,2.616025365162951e-13
32		2.089296130854037e+00,0.000000000000000e+00
	-2.550989081414968e-01,2.676960423799949e-09
	1.000000000000000e+00,0.000000000000000e+00
	0.000000000000000e+00,0.000000000000000e+00
	6.053691071671994e-05,2.758285062039279e-13
	6.053691262995696e-05,3.019028290769953e-13
	2.550989081414968e-05,-2.676960423799948e-13
	3.678622889667234e-05,1.052390483840811e-12
	-3.228635329949287e-05,-1.592812881186458e-13
	-3.000976641132916e-05,-6.254131533421709e-13
	-2.550989081414969e-05,2.676960423799949e-13
	-3.678622889680128e-05,-1.052390483840811e-12
	-2.550989081414969e-05,2.676960423799949e-13
33		2.137962089502230e+00,0.000000000000000e+00
	-2.550989081414968e-01,2.739314842287405e-09
	1.000000000000000e+00,0.000000000000000e+00
	0.000000000000000e+00,0.000000000000000e+00
	6.053691071671994e-05,2.822533774697479e-13
	6.053691262995696e-05,3.089350493442236e-13
	2.550989081414968e-05,-2.739314842287405e-13
	3.678622889667234e-05,1.076903807257255e-12
	-3.228635329949287e-05,-1.629914259332620e-13
	-3.000976641132916e-05,-6.399808970952521e-13
	-2.550989081414969e-05,2.739314842287405e-13
	-3.678622889680128e-05,-1.076903807257254e-12
	-2.550989081414969e-05,2.739314842287405e-13
34		2.187761623949550e+00,0.000000000000000e+00
	-2.550989081414968e-01,2.803121681763360e-09
	1.000000000000000e+00,0.000000000000000e+00
	0.000000000000000e+00,0.000000000000000e+00
	6.053691071671994e-05,2.888279032123675e-13
	6.053691262995696e-05,3.161310710638529e-13
	2.550989081414968e-05,-2.803121681763360e-13
	3.678622889667234e-05,1.101988119326812e-12
	-3.228635329949287e-05,-1.667879839593546e-13
	-3.000976641132916e-05,-6.548879671911219e-13
	-2.550989081414969e-05,2.803121681763360e-13
	-3.678622889680128e-05,-1.101988119326812e-12
	-2.550989081414969e-05,2.803121681763360e-13
35		2.238721138568337e+00,0.000000000000000e+00
	-2.550989081414968e-01,2.868414773458689e-09
	1.000000000000000e+00,0.000000000000000e+00
	0.000000000000000e+00,0.000000000000000e+00
	6.053691071671994e-05,2.955555693323597e-13
	6.053691262995696e-05,3.234947096618499e-13
	2.550989081414968e-05,-2.868414773458689e-13
	3.678622889667234e-05,1.127656720083775e-12
	-3.228635329949287e-05,-1.706729751822424e-13
	-3.000976641132916e-05,-6.701422675556635e-13
	-2.550989081414969e-05,2.868414773458689e-13
	-3.678622889680128e-05,-1.127656720083774e-12
	-2.550989081414969e-05,2.868414773458689e-13
36		2.290867652767770e+00,0.000000000000000e+00
	-2.550989081414968e-01,2.935228736634864e-09
	1.000000000000000e+00,0.000000000000000e+00
	0.000000000000000e+00,0.000000000000000e+00
	6.053691071671994e-05,3.024399429273522e-13
	6.053691262995696e-05,3.310298694368682e-13
	2.550989081414968e-05,-2.935228736634862e-13
	3.678622889667234e-05,1.153923219360027e-12
	-3.228635329949287e-05,-1.746484594756957e-13
	-3.000976641132916e-05,-6.857518862208446e-13
	-2.550989081414969e-05,2.935228736634864e-13
	-3.678622889680128e-05,-1.153923219360026e-12
	-2.550989081414969e-05,2.935228736634864e-13
37		2.344228815319919e+00,0.000000000000000e+00
	-2.550989081414968e-01,3.003598996939546e-09
	1.000000000000000e+00,0.000000000000000e+00
	0.000000000000000e+00,0.000000000000000e+00
	6.053691071671994e-05,3.094846741833506e-13
	6.053691262995696e-05,3.387405456303601e-13
	2.550989081414968e-05,-3.003598996939546e-13
	3.678622889667234e-05,1.180801544001162e-12
	-3.228635329949287e-05,-1.787165446941086e-13
	-3.000976641132916e-05,-7.017250996130992e-13
	-2.550989081414969e-05,3.003598996939546e-13
	-3.678622889680128e-05,-1.180801544001162e-12
	-2.550989081414969e-05,3.003598996939546e-13
38		2.398832919019488e+00,0.000000000000000e+00
	-2.550989081414968e-01,3.073561805189740e-09
	1.000000000000000e+00,0.000000000000000e+00
	0.000000000000000e+00,0.000000000000000e+00
	6.053691071671994e-05,3.166934983101152e-13
	6.053691262995696e-05,3.466308265449065e-13
	2.550989081414968e-05,-3.073561805189740e-13
	3.678622889667234e-05,1.208305945250684e-12
	-3.228635329949287e-05,-1.828793877901116e-13
	-3.000976641132916e-05,-7.180703769415986e-13
	-2.550989081414969e-05,3.073561805189741e-13
	-3.678622889680128e-05,-1.208305945250684e-12
	-2.550989081414969e-05,3.073561805189741e-13
39		2.454708915685027e+00,0.000000000000000e+00
	-2.550989081414968e-01,3.145154256592445e-09
	1.000000000000000e+00,0.000000000000000e+00
	0.000000000000000e+00,0.000000000000000e+00
	6.053691071671994e-05,3.240702375216177e-13
	6.053691262995696e-05,3.547048957118884e-13
	2.550989081414968e-05,-3.145154256592445e-13
	3.678622889667234e-05,1.236451006306198e-12
	-3.228635329949287e-05,-1.871391959582157e-13
	-3.000976641132916e-05,-7.347963846887374e-13
	-2.550989081414969e-05,3.145154256592445e-13
	-3.678622889680128e-05,-1.236451006306197e-12
	-2.550989081414969e-05,3.145154256592445e-13
40		2.511886431509577e+00,0.000000000000000e+00
	-2.550989081414968e-01,3.218414310413034e-09
	1.000000000000000e+00,0.000000000000000e+00
	0.000000000000000e+00,0.000000000000000e+00
	6.053691071671994e-05,3.316188030626308e-13
	6.053691262995696e-05,3.629670341096511e-13
	2.550989081414968e-05,-3.218414310413034e-13
	3.678622889667234e-05,1.265251650051619e-12
	-3.228635329949287e-05,-1.914982278050969e-13
	-3.000976641132916e-05,-7.519119912052181e-13
	-2.550989081414969e-05,3.218414310413034e-13
	-3.678622889680128e-05,-1.265251650051618e-12
	-2.550989081414969e-05,3.218414310413034e-13
41		2.570395782768860e+00,0.000000000000000e+00
	-2.550989081414968e-01,3.293380810101753e-09
	1.000000000000000e+00,0.000000000000000e+00
	0.000000000000000e+00,0.000000000000000e+00
	6.053691071671994e-05,3.393431972825215e-13
	6.053691262995696e-05,3.714216224333354e-13
	2.550989081414968e-05,-3.293380810101753e-13
	3.678622889667234e-05,1.294723146969482e-12
	-3.228635329949287e-05,-1.959587945471391e-13
	-3.000976641132916e-05,-7.694262714121677e-13
	-2.550989081414969e-05,3.293380810101753e-13
	-3.678622889680128e-05,-1.294723146969482e-12
	-2.550989081414969e-05,3.293380810101753e-13
42		2.630267991895378e+00,0.000000000000000e+00
	-2.550989081414968e-01,3.370093503889037e-09
	1.000000000000000e+00,0.000000000000000e+00
	0.000000000000000e+00,0.000000000000000e+00
	6.053691071671994e-05,3.472475157573498e-13
	6.053691262995696e-05,3.800731434175802e-13
	2.550989081414968e-05,-3.370093503889038e-13
	3.678622889667234e-05,1.324881123237556e-12
	-3.228635329949287e-05,-2.005232612358715e-13
	-3.000976641132916e-05,-7.873485116127808e-13
	-2.550989081414969e-05,3.370093503889037e-13
	-3.678622889680128e-05,-1.324881123237556e-12
	-2.550989081414969e-05,3.370093503889037e-13
43		2.691534803926912e+00,0.000000000000000e+00
	-2.550989081414968e-01,3.448593065860544e-09
	1.000000000000000e+00,0.000000000000000e+00
	0.000000000000000e+00,0.000000000000000e+00
	6.053691071671994e-05,3.553359494613968e-13
	6.053691262995696e-05,3.889261842133279e-13
	2.550989081414968e-05,-3.448593065860546e-13
	3.678622889667234e-05,1.355741569014045e-12
	-3.228635329949287e-05,-2.051940480119503e-13
	-3.000976641132916e-05,-8.056882144160404e-13
	-2.550989081414969e-05,3.448593065860544e-13
	-3.678622889680128e-05,-1.355741569014045e-12
	-2.550989081414969e-05,3.448593065860544e-13
44		2.754228703338163e+00,0.000000000000000e+00
	-2.550989081414968e-01,3.528921117523096e-09
	1.000000000000000e+00,0.000000000000000e+00
	0.000000000000000e+00,0.000000000000000e+00
	6.053691071671994e-05,3.636127869892755e-13
	6.053691262995696e-05,3.979854388199921e-13
	2.550989081414968e-05,-3.528921117523095e-13
	3.678622889667234e-05,1.387320846915787e-12
	-3.228635329949287e-05,-2.099736313883493e-13
	-3.000976641132916e-05,-8.244551037751278e-13
	-2.550989081414969e-05,3.528921117523096e-13
	-3.678622889680128e-05,-1.387320846915787e-12
	-2.550989081414969e-05,3.528921117523096e-13
45		2.818382931264450e+00,0.000000000000000e+00
	-2.550989081414968e-01,3.611120249872952e-09
	1.000000000000000e+00,0.000000000000000e+00
	0.000000000000000e+00,0.000000000000000e+00
	6.053691071671994e-05,3.720824168298003e-13
	6.053691262995696e-05,4.072557105742788e-13
	2.550989081414968e-05,-3.611120249872951e-13
	3.678622889667234e-05,1.419635700693926e-12
	-3.228635329949287e-05,-2.148645455634401e-13
	-3.000976641132916e-05,-8.436591301431904e-13
	-2.550989081414969e-05,3.611120249872952e-13
	-3.678622889680128e-05,-1.419635700693926e-12
	-2.550989081414969e-05,3.611120249872952e-13
46		2.884031503126602e+00,0.000000000000000e+00
	-2.550989081414968e-01,3.695234045978116e-09
	1.000000000000000e+00,0.000000000000000e+00
	0.000000000000000e+00,0.000000000000000e+00
	6.053691071671994e-05,3.807493296928211e-13
	6.053691262995696e-05,4.167419146969785e-13
	2.550989081414968e-05,-3.695234045978116e-13
	3.678622889667234e-05,1.452703264111672e-12
	-3.228635329949287e-05,-2.198693837646570e-13
	-3.000976641132916e-05,-8.633104757492032e-13
	-2.550989081414969e-05,3.695234045978116e-13
	-3.678622889680128e-05,-1.452703264111672e-12
	-2.550989081414969e-05,3.695234045978116e-13
47		2.951209226666381e+00,0.000000000000000e+00
	-2.550989081414968e-01,3.781307104086665e-09
	1.000000000000000e+00,0.000000000000000e+00
	0.000000000000000e+00,0.000000000000000e+00
	6.053691071671994e-05,3.896181208902581e-13
	6.053691262995696e-05,4.264490808990817e-13
	2.550989081414968e-05,-3.781307104086664e-13
	3.678622889667234e-05,1.486541070028851e-12
	-3.228635329949287e-05,-2.249907996234613e-13
	-3.000976641132916e-05,-8.834195599967237e-13
	-2.550989081414969e-05,3.781307104086665e-13
	-3.678622889680128e-05,-1.486541070028851e-12
	-2.550989081414969e-05,3.781307104086665e-13
48		3.019951720402012e+00,0.000000000000000e+00
	-2.550989081414968e-01,3.869385061273317e-09
	1.000000000000000e+00,0.000000000000000e+00
	0.000000000000000e+00,0.000000000000000e+00
	6.053691071671994e-05,3.986934927725971e-13
	6.053691262995696e-05,4.363823560485989e-13
	2.550989081414968e-05,-3.869385061273316e-13
	3.678622889667234e-05,1.521167059698058e-12
	-3.228635329949287e-05,-2.302315085823314e-13
	-3.000976641132916e-05,-9.039970449883946e-13
	-2.550989081414969e-05,3.869385061273317e-13
	-3.678622889680128e-05,-1.521167059698057e-12
	-2.550989081414969e-05,3.869385061273317e-13
49		3.090295432513586e+00,0.000000000000000e+00