Title: * GA CMOS Amp | W=5.094975270362203e-06 L=1e-06 Vbias=1.4505355220994989
Date: Sat Sep  6 22:09:51 2025
Plotname: Operating Point
Flags: real
No. Variables: 12
No. Points:            1
Offset:    0.0000000000000000e+00
Command: Linear Technology Corporation LTspice
Variables:
	0	V(out)	voltage
	1	V(g)	voltage
	2	V(vdd)	voltage
	3	V(m1#dbody)	voltage
	4	V(m1#sbody)	voltage
	5	Id(M1)	device_current
	6	Ig(M1)	device_current
	7	Ib(M1)	device_current
	8	Is(M1)	device_current
	9	I(Rload)	device_current
	10	I(Vg)	device_current
	11	I(Vdd)	device_current
Values:
0		3.766405533358487e-01
	1.450535522099499e+00
	1.800000000000000e+00
	1.681429353126392e-05
	1.681429063145707e-05
	1.423359427751170e-04
	1.174984867988998e-05
	-8.967621870206991e-06
	-1.451181695847999e-04
	-1.423359446664151e-04
	-1.174984867624573e-05
	-1.423359446664151e-04
