Title: * GA CMOS Amp | W=1.3445100940969487e-05 L=9.837601295677318e-07 Vbias=0.5931742159681479
Date: Sat Sep  6 22:41:42 2025
Plotname: Operating Point
Flags: real
No. Variables: 12
No. Points:            1
Offset:    0.0000000000000000e+00
Command: Linear Technology Corporation LTspice
Variables:
	0	V(out)	voltage
	1	V(g)	voltage
	2	V(vdd)	voltage
	3	V(m1#dbody)	voltage
	4	V(m1#sbody)	voltage
	5	Id(M1)	device_current
	6	Ig(M1)	device_current
	7	Ib(M1)	device_current
	8	Is(M1)	device_current
	9	I(Rload)	device_current
	10	I(Vg)	device_current
	11	I(Vdd)	device_current
Values:
0		2.337886913485520e-01
	5.931742159681479e-01
	1.800000000000000e+00
	1.978722048034356e-10
	1.960437985219083e-10
	1.566211306341926e-04
	9.490733711112953e-08
	-1.046785863763459e-10
	-1.567159332927173e-04
	-1.566211308651448e-04
	-9.490733710038057e-08
	-1.566211308651448e-04
