Title: * GA CMOS Amp | W=4.7830290502946386e-05 L=5.893985622953518e-07 Vbias=0.6995145534659682
Date: Mon Sep  8 21:06:25 2025
Plotname: AC Analysis
Flags: complex forward log nocompression
No. Variables: 2
No. Points:         3601
Offset:    0.0000000000000000e+00
Command: Linear Technology Corporation LTspice
Variables:
	0	frequency	frequency
	1	V(out)	voltage
Values:
0		1.000000000000000e+00,0.000000000000000e+00
	-1.709902902149280e+00,1.601540759505495e-09
1		1.005773063001738e+00,0.000000000000000e+00
	-1.709902902149280e+00,1.610786555209972e-09
2		1.011579454259899e+00,0.000000000000000e+00
	-1.709902902149280e+00,1.620085727475552e-09
3		1.017419366180605e+00,0.000000000000000e+00
	-1.709902902149280e+00,1.629438584448485e-09
4		1.023292992280754e+00,0.000000000000000e+00
	-1.709902902149280e+00,1.638845436053970e-09
5		1.029200527194428e+00,0.000000000000000e+00
	-1.709902902149280e+00,1.648306594006421e-09
6		1.035142166679344e+00,0.000000000000000e+00
	-1.709902902149280e+00,1.657822371819800e-09
7		1.041118107623340e+00,0.000000000000000e+00
	-1.709902902149280e+00,1.667393084818007e-09
8		1.047128548050900e+00,0.000000000000000e+00
	-1.709902902149280e+00,1.677019050145324e-09
9		1.053173687129716e+00,0.000000000000000e+00
	-1.709902902149280e+00,1.686700586776928e-09
10		1.059253725177289e+00,0.000000000000000e+00
	-1.709902902149280e+00,1.696438015529460e-09
11		1.065368863667564e+00,0.000000000000000e+00
	-1.709902902149280e+00,1.706231659071656e-09
12		1.071519305237607e+00,0.000000000000000e+00
	-1.709902902149280e+00,1.716081841935037e-09
13		1.077705253694323e+00,0.000000000000000e+00
	-1.709902902149280e+00,1.725988890524667e-09
14		1.083926914021204e+00,0.000000000000000e+00
	-1.709902902149280e+00,1.735953133129966e-09
15		1.090184492385128e+00,0.000000000000000e+00
	-1.709902902149280e+00,1.745974899935591e-09
16		1.096478196143186e+00,0.000000000000000e+00
	-1.709902902149280e+00,1.756054523032373e-09
17		1.102808233849553e+00,0.000000000000000e+00
	-1.709902902149280e+00,1.766192336428327e-09
18		1.109174815262402e+00,0.000000000000000e+00
	-1.709902902149280e+00,1.776388676059715e-09
19		1.115578151350854e+00,0.000000000000000e+00
	-1.709902902149280e+00,1.786643879802182e-09
20		1.122018454301965e+00,0.000000000000000e+00
	-1.709902902149280e+00,1.796958287481950e-09
21		1.128495937527763e+00,0.000000000000000e+00
	-1.709902902149280e+00,1.807332240887080e-09
22		1.135010815672317e+00,0.000000000000000e+00
	-1.709902902149280e+00,1.817766083778793e-09
23		1.141563304618847e+00,0.000000000000000e+00
	-1.709902902149280e+00,1.828260161902871e-09
24		1.148153621496885e+00,0.000000000000000e+00
	-1.709902902149280e+00,1.838814823001105e-09
25		1.154781984689460e+00,0.000000000000000e+00
	-1.709902902149280e+00,1.849430416822820e-09
26		1.161448613840345e+00,0.000000000000000e+00
	-1.709902902149280e+00,1.860107295136469e-09
27		1.168153729861326e+00,0.000000000000000e+00
	-1.709902902149280e+00,1.870845811741285e-09
28		1.174897554939532e+00,0.000000000000000e+00
	-1.709902902149280e+00,1.881646322479006e-09
29		1.181680312544786e+00,0.000000000000000e+00
	-1.709902902149280e+00,1.892509185245667e-09
30		1.188502227437020e+00,0.000000000000000e+00
	-1.709902902149280e+00,1.903434760003458e-09
31		1.195363525673721e+00,0.000000000000000e+00
	-1.709902902149280e+00,1.914423408792657e-09
32		1.202264434617415e+00,0.000000000000000e+00
	-1.709902902149280e+00,1.925475495743619e-09
33		1.209205182943211e+00,0.000000000000000e+00
	-1.709902902149280e+00,1.936591387088851e-09
34		1.216186000646371e+00,0.000000000000000e+00
	-1.709902902149280e+00,1.947771451175139e-09
35		1.223207119049934e+00,0.000000000000000e+00
	-1.709902902149280e+00,1.959016058475760e-09
36		1.230268770812384e+00,0.000000000000000e+00
	-1.709902902149280e+00,1.970325581602757e-09
37		1.237371189935355e+00,0.000000000000000e+00
	-1.709902902149280e+00,1.981700395319286e-09
38		1.244514611771388e+00,0.000000000000000e+00
	-1.709902902149280e+00,1.993140876552034e-09
39		1.251699273031728e+00,0.000000000000000e+00
	-1.709902902149280e+00,2.004647404403709e-09
40		1.258925411794170e+00,0.000000000000000e+00
	-1.709902902149280e+00,2.016220360165603e-09
41		1.266193267510947e+00,0.000000000000000e+00
	-1.709902902149280e+00,2.027860127330226e-09
42		1.273503081016665e+00,0.000000000000000e+00
	-1.709902902149280e+00,2.039567091604017e-09
43		1.280855094536282e+00,0.000000000000000e+00
	-1.709902902149280e+00,2.051341640920119e-09
44		1.288249551693137e+00,0.000000000000000e+00
	-1.709902902149280e+00,2.063184165451239e-09
45		1.295686697517022e+00,0.000000000000000e+00
	-1.709902902149280e+00,2.075095057622578e-09
46		1.303166778452302e+00,0.000000000000000e+00
	-1.709902902149280e+00,2.087074712124829e-09
47		1.310690042366080e+00,0.000000000000000e+00
	-1.709902902149280e+00,2.099123525927261e-09
48		1.318256738556410e+00,0.000000000000000e+00
	-1.709902902149280e+00,2.111241898290870e-09
49		1.325867117760563e+00,0.000000000000000e+00
	-1.709902902149280e+00,2.123430230781612e-09
50		1.333521432163328e+00,0.000000000000000e+00
	-1.709902902149280e+00,2.135688927283711e-09
51		1.341219935405375e+00,0.000000000000000e+00
	-1.709902902149280e+00,2.148018394013034e-09
52		1.348962882591657e+00,0.000000000000000e+00
	-1.709902902149280e+00,2.160419039530564e-09
53		1.356750530299865e+00,0.000000000000000e+00
	-1.709902902149280e+00,2.172891274755929e-09
54		1.364583136588928e+00,0.000000000000000e+00
	-1.709902902149280e+00,2.185435512981023e-09
55		1.372460961007566e+00,0.000000000000000e+00
	-1.709902902149280e+00,2.198052169883699e-09
56		1.380384264602889e+00,0.000000000000000e+00
	-1.709902902149280e+00,2.210741663541544e-09
57		1.388353309929050e+00,0.000000000000000e+00
	-1.709902902149280e+00,2.223504414445738e-09
58		1.396368361055942e+00,0.000000000000000e+00
	-1.709902902149280e+00,2.236340845514976e-09
59		1.404429683577952e+00,0.000000000000000e+00
	-1.709902902149280e+00,2.249251382109495e-09
60		1.412537544622759e+00,0.000000000000000e+00
	-1.709902902149280e+00,2.262236452045161e-09
61		1.420692212860187e+00,0.000000000000000e+00
	-1.709902902149280e+00,2.275296485607645e-09
62		1.428893958511108e+00,0.000000000000000e+00
	-1.709902902149280e+00,2.288431915566693e-09
63		1.437143053356396e+00,0.000000000000000e+00
	-1.709902902149280e+00,2.301643177190448e-09
64		1.445439770745933e+00,0.000000000000000e+00
	-1.709902902149280e+00,2.314930708259889e-09
65		1.453784385607667e+00,0.000000000000000e+00
	-1.709902902149280e+00,2.328294949083332e-09
66		1.462177174456723e+00,0.000000000000000e+00
	-1.709902902149280e+00,2.341736342511019e-09
67		1.470618415404566e+00,0.000000000000000e+00
	-1.709902902149280e+00,2.355255333949795e-09
68		1.479108388168213e+00,0.000000000000000e+00
	-1.709902902149280e+00,2.368852371377868e-09
69		1.487647374079508e+00,0.000000000000000e+00
	-1.709902902149280e+00,2.382527905359650e-09
70		1.496235656094439e+00,0.000000000000000e+00
	-1.709902902149280e+00,2.396282389060690e-09
71		1.504873518802520e+00,0.000000000000000e+00
	-1.709902902149280e+00,2.410116278262694e-09
72		1.513561248436214e+00,0.000000000000000e+00
	-1.709902902149280e+00,2.424030031378619e-09
73		1.522299132880426e+00,0.000000000000000e+00
	-1.709902902149280e+00,2.438024109467874e-09
74		1.531087461682036e+00,0.000000000000000e+00
	-1.709902902149280e+00,2.452098976251588e-09
75		1.539926526059498e+00,0.000000000000000e+00
	-1.709902902149280e+00,2.466255098127987e-09
76		1.548816618912488e+00,0.000000000000000e+00
	-1.709902902149280e+00,2.480492944187838e-09
77		1.557758034831609e+00,0.000000000000000e+00
	-1.709902902149280e+00,2.494812986230001e-09
78		1.566751070108156e+00,0.000000000000000e+00
	-1.709902902149280e+00,2.509215698777062e-09
79		1.575796022743931e+00,0.000000000000000e+00
	-1.709902902149280e+00,2.523701559091052e-09
80		1.584893192461120e+00,0.000000000000000e+00
	-1.709902902149280e+00,2.538271047189271e-09
81		1.594042880712224e+00,0.000000000000000e+00
	-1.709902902149280e+00,2.552924645860182e-09
82		1.603245390690048e+00,0.000000000000000e+00
	-1.709902902149280e+00,2.567662840679423e-09
83		1.612501027337748e+00,0.000000000000000e+00
	-1.709902902149280e+00,2.582486120025888e-09
84		1.621810097358937e+00,0.000000000000000e+00
	-1.709902902149280e+00,2.597394975097912e-09
85		1.631172909227846e+00,0.000000000000000e+00
	-1.709902902149280e+00,2.612389899929551e-09
86		1.640589773199547e+00,0.000000000000000e+00
	-1.709902902149280e+00,2.627471391406949e-09
87		1.650061001320235e+00,0.000000000000000e+00
	-1.709902902149280e+00,2.642639949284807e-09
88		1.659586907437568e+00,0.000000000000000e+00
	-1.709902902149280e+00,2.657896076202938e-09
89		1.669167807211066e+00,0.000000000000000e+00
	-1.709902902149280e+00,2.673240277702931e-09
90		1.678804018122569e+00,0.000000000000000e+00
	-1.709902902149280e+00,2.688673062244895e-09
91		1.688495859486762e+00,0.000000000000000e+00
	-1.709902902149280e+00,2.704194941224312e-09
92		1.698243652461753e+00,0.000000000000000e+00
	-1.709902902149280e+00,2.719806428988981e-09
93		1.708047720059717e+00,0.000000000000000e+00
	-1.709902902149280e+00,2.735508042856068e-09
94		1.717908387157597e+00,0.000000000000000e+00
	-1.709902902149280e+00,2.751300303129237e-09
95		1.727825980507873e+00,0.000000000000000e+00
	-1.709902902149280e+00,2.767183733115905e-09
96		1.737800828749385e+00,0.000000000000000e+00
	-1.709902902149280e+00,2.783158859144568e-09
97		1.747833262418228e+00,0.000000000000000e+00
	-1.709902902149280e+00,2.799226210582256e-09
98		1.757923613958702e+00,0.000000000000000e+00
	-1.709902902149280e+00,2.815386319852065e-09
99		1.768072217734330e+00,0.000000000000000e+00
	-1.709902902149280e+00,2.831639722450803e-09
100		1.778279410038933e+00,0.000000000000000e+00
	-1.709902902149280e+00,2.847986956966736e-09
101		1.788545529107782e+00,0.000000000000000e+00
	-1.709902902149280e+00,2.864428565097434e-09
102		1.798870915128798e+00,0.000000000000000e+00
	-1.709902902149280e+00,2.880965091667720e-09
103		1.809255910253831e+00,0.000000000000000e+00
	-1.709902902149280e+00,2.897597084647727e-09
104		1.819700858609994e+00,0.000000000000000e+00
	-1.709902902149280e+00,2.914325095171051e-09
105		1.830206106311067e+00,0.000000000000000e+00
	-1.709902902149280e+00,2.931149677553021e-09
106		1.840772001468967e+00,0.000000000000000e+00
	-1.709902902149280e+00,2.948071389309059e-09
107		1.851398894205283e+00,0.000000000000000e+00
	-1.709902902149280e+00,2.965090791173163e-09
108		1.862087136662879e+00,0.000000000000000e+00
	-1.709902902149280e+00,2.982208447116480e-09
109		1.872837083017560e+00,0.000000000000000e+00
	-1.709902902149280e+00,2.999424924365999e-09
110		1.883649089489812e+00,0.000000000000000e+00
	-1.709902902149280e+00,3.016740793423347e-09
111		1.894523514356604e+00,0.000000000000000e+00
	-1.709902902149280e+00,3.034156628083695e-09
112		1.905460717963259e+00,0.000000000000000e+00
	-1.709902902149280e+00,3.051673005454764e-09
113		1.916461062735399e+00,0.000000000000000e+00
	-1.709902902149280e+00,3.069290505975958e-09
114		1.927524913190948e+00,0.000000000000000e+00
	-1.709902902149280e+00,3.087009713437594e-09
115		1.938652635952220e+00,0.000000000000000e+00
	-1.709902902149280e+00,3.104831215000248e-09
116		1.949844599758058e+00,0.000000000000000e+00
	-1.709902902149280e+00,3.122755601214208e-09
117		1.961101175476061e+00,0.000000000000000e+00
	-1.709902902149280e+00,3.140783466039049e-09
118		1.972422736114867e+00,0.000000000000000e+00
	-1.709902902149280e+00,3.158915406863310e-09
119		1.983809656836519e+00,0.000000000000000e+00
	-1.709902902149280e+00,3.177152024524294e-09
120		1.995262314968893e+00,0.000000000000000e+00
	-1.709902902149280e+00,3.195493923327973e-09
121		2.006781090018203e+00,0.000000000000000e+00
	-1.709902902149280e+00,3.213941711069017e-09
122		2.018366363681575e+00,0.000000000000000e+00
	-1.709902902149280e+00,3.232495999050934e-09
123		2.030018519859698e+00,0.000000000000000e+00
	-1.709902902149280e+00,3.251157402106321e-09
124		2.041737944669544e+00,0.000000000000000e+00
	-1.709902902149280e+00,3.269926538617249e-09
125		2.053525026457161e+00,0.000000000000000e+00
	-1.709902902149280e+00,3.288804030535743e-09
126		2.065380155810544e+00,0.000000000000000e+00
	-1.709902902149280e+00,3.307790503404396e-09
127		2.077303725572579e+00,0.000000000000000e+00
	-1.709902902149280e+00,3.326886586377101e-09
128		2.089296130854055e+00,0.000000000000000e+00
	-1.709902902149280e+00,3.346092912239895e-09
129		2.101357769046763e+00,0.000000000000000e+00
	-1.709902902149280e+00,3.365410117431925e-09
130		2.113489039836662e+00,0.000000000000000e+00
	-1.709902902149280e+00,3.384838842066547e-09
131		2.125690345217123e+00,0.000000000000000e+00
	-1.709902902149280e+00,3.404379729952528e-09
132		2.137962089502248e+00,0.000000000000000e+00
	-1.709902902149280e+00,3.424033428615385e-09
133		2.150304679340273e+00,0.000000000000000e+00
	-1.709902902149280e+00,3.443800589318839e-09
134		2.162718523727037e+00,0.000000000000000e+00
	-1.709902902149280e+00,3.463681867086401e-09
135		2.175204034019540e+00,0.000000000000000e+00
	-1.709902902149280e+00,3.483677920723070e-09
136		2.187761623949570e+00,0.000000000000000e+00
	-1.709902902149280e+00,3.503789412837168e-09
137		2.200391709637416e+00,0.000000000000000e+00
	-1.709902902149280e+00,3.524017009862301e-09
138		2.213094709605655e+00,0.000000000000000e+00
	-1.709902902149280e+00,3.544361382079434e-09
139		2.225871044793023e+00,0.000000000000000e+00
	-1.709902902149280e+00,3.564823203639107e-09
140		2.238721138568358e+00,0.000000000000000e+00
	-1.709902902149280e+00,3.585403152583774e-09
141		2.251645416744636e+00,0.000000000000000e+00
	-1.709902902149280e+00,3.606101910870271e-09
142		2.264644307593079e+00,0.000000000000000e+00
	-1.709902902149280e+00,3.626920164392414e-09
143		2.277718241857341e+00,0.000000000000000e+00
	-1.709902902149280e+00,3.647858603003727e-09
144		2.290867652767792e+00,0.000000000000000e+00
	-1.709902902149280e+00,3.668917920540300e-09
145		2.304092976055865e+00,0.000000000000000e+00
	-1.709902902149280e+00,3.690098814843787e-09
146		2.317394649968498e+00,0.000000000000000e+00
	-1.709902902149280e+00,3.711401987784519e-09
147		2.330773115282658e+00,0.000000000000000e+00
	-1.709902902149280e+00,3.732828145284776e-09
148		2.344228815319942e+00,0.000000000000000e+00
	-1.709902902149280e+00,3.754377997342167e-09
149		2.357762195961275e+00,0.000000000000000e+00
	-1.709902902149280e+00,3.776052258053164e-09
150		2.371373705661676e+00,0.000000000000000e+00
	-1.709902902149280e+00,3.797851645636761e-09
151		2.385063795465127e+00,0.000000000000000e+00
	-1.709902902149280e+00,3.819776882458277e-09
152		2.398832919019512e+00,0.000000000000000e+00
	-1.709902902149280e+00,3.841828695053293e-09
153		2.412681532591656e+00,0.000000000000000e+00
	-1.709902902149280e+00,3.864007814151721e-09
154		2.426610095082438e+00,0.000000000000000e+00
	-1.709902902149280e+00,3.886314974702029e-09
155		2.440619068042003e+00,0.000000000000000e+00
	-1.709902902149280e+00,3.908750915895582e-09
156		2.454708915685053e+00,0.000000000000000e+00
	-1.709902902149280e+00,3.931316381191149e-09
157		2.468880104906232e+00,0.000000000000000e+00
	-1.709902902149280e+00,3.954012118339532e-09
158		2.483133105295594e+00,0.000000000000000e+00
	-1.709902902149280e+00,3.976838879408343e-09
159		2.497468389154167e+00,0.000000000000000e+00
	-1.709902902149280e+00,3.999797420806929e-09
160		2.511886431509604e+00,0.000000000000000e+00
	-1.709902902149280e+00,4.022888503311438e-09
161		2.526387710131921e+00,0.000000000000000e+00
	-1.709902902149280e+00,4.046112892090024e-09
162		2.540972705549330e+00,0.000000000000000e+00
	-1.709902902149280e+00,4.069471356728205e-09
163		2.555641901064163e+00,0.000000000000000e+00
	-1.709902902149280e+00,4.092964671254367e-09
164		2.570395782768889e+00,0.000000000000000e+00
	-1.709902902149280e+00,4.116593614165408e-09
165		2.585234839562216e+00,0.000000000000000e+00
	-1.709902902149280e+00,4.140358968452538e-09
166		2.600159563165298e+00,0.000000000000000e+00
	-1.709902902149280e+00,4.164261521627226e-09
167		2.615170448138023e+00,0.000000000000000e+00
	-1.709902902149280e+00,4.188302065747294e-09
168		2.630267991895408e+00,0.000000000000000e+00
	-1.709902902149280e+00,4.212481397443164e-09
169		2.645452694724076e+00,0.000000000000000e+00
	-1.709902902149280e+00,4.236800317944254e-09
170		2.660725059798836e+00,0.000000000000000e+00
	-1.709902902149280e+00,4.261259633105531e-09
171		2.676085593199359e+00,0.000000000000000e+00
	-1.709902902149280e+00,4.285860153434214e-09
172		2.691534803926943e+00,0.000000000000000e+00
	-1.709902902149280e+00,4.310602694116630e-09
173		2.707073203921385e+00,0.000000000000000e+00
	-1.709902902149280e+00,4.335488075045227e-09
174		2.722701308077940e+00,0.000000000000000e+00
	-1.709902902149280e+00,4.360517120845749e-09
175		2.738419634264389e+00,0.000000000000000e+00
	-1.709902902149280e+00,4.385690660904549e-09
176		2.754228703338195e+00,0.000000000000000e+00
	-1.709902902149280e+00,4.411009529396086e-09
177		2.770129039163762e+00,0.000000000000000e+00
	-1.709902902149280e+00,4.436474565310558e-09
178		2.786121168629800e+00,0.000000000000000e+00
	-1.709902902149280e+00,4.462086612481705e-09
179		2.802205621666776e+00,0.000000000000000e+00
	-1.709902902149280e+00,4.487846519614776e-09
180		2.818382931264483e+00,0.000000000000000e+00
	-1.709902902149280e+00,4.513755140314643e-09
181		2.834653633489697e+00,0.000000000000000e+00
	-1.709902902149280e+00,4.539813333114100e-09
182		2.851018267503939e+00,0.000000000000000e+00
	-1.709902902149280e+00,4.566021961502298e-09
183		2.867477375581346e+00,0.000000000000000e+00
	-1.709902902149280e+00,4.592381893953372e-09
184		2.884031503126637e+00,0.000000000000000e+00
	-1.709902902149280e+00,4.618894003955207e-09
185		2.900681198693185e+00,0.000000000000000e+00
	-1.709902902149280e+00,4.645559170038392e-09
186		2.917427014001198e+00,0.000000000000000e+00
	-1.709902902149280e+00,4.672378275805327e-09
187		2.934269503956000e+00,0.000000000000000e+00
	-1.709902902149280e+00,4.699352209959504e-09
188		2.951209226666418e+00,0.000000000000000e+00
	-1.709902902149280e+00,4.726481866334959e-09
189		2.968246743463274e+00,0.000000000000000e+00
	-1.709902902149280e+00,4.753768143925884e-09
190		2.985382618917992e+00,0.000000000000000e+00
	-1.709902902149280e+00,4.781211946916425e-09
191		3.002617420861300e+00,0.000000000000000e+00
	-1.709902902149280e+00,4.808814184710636e-09
192		3.019951720402049e+00,0.000000000000000e+00
	-1.709902902149280e+00,4.836575771962623e-09
193		3.037386091946138e+00,0.000000000000000e+00
	-1.709902902149280e+00,4.864497628606845e-09
194		3.054921113215547e+00,0.000000000000000e+00
	-1.709902902149280e+00,4.892580679888599e-09
195		3.072557365267481e+00,0.000000000000000e+00
	-1.709902902149280e+00,4.920825856394684e-09
196		3.090295432513625e+00,0.000000000000000e+00
	-1.709902902149280e+00,4.949234094084233e-09
197		3.108135902739511e+00,0.000000000000000e+00
	-1.709902902149280e+00,4.977806334319732e-09
198		3.126079367123991e+00,0.000000000000000e+00
	-1.709902902149280e+00,5.006543523898212e-09
199		3.144126420258832e+00,0.000000000000000e+00
	-1.709902902149280e+00,5.035446615082622e-09
200		3.162277660168416e+00,0.000000000000000e+00
	-1.709902902149280e+00,5.064516565633383e-09
201		3.180533688329558e+00,0.000000000000000e+00
	-1.709902902149280e+00,5.093754338840134e-09
202		3.198895109691435e+00,0.000000000000000e+00
	-1.709902902149280e+00,5.123160903553634e-09
203		3.217362532695637e+00,0.000000000000000e+00
	-1.709902902149280e+00,5.152737234217892e-09
204		3.235936569296321e+00,0.000000000000000e+00
	-1.709902902149280e+00,5.182484310902434e-09
205		3.254617834980497e+00,0.000000000000000e+00
	-1.709902902149280e+00,5.212403119334794e-09
206		3.273406948788421e+00,0.000000000000000e+00
	-1.709902902149280e+00,5.242494650933172e-09
207		3.292304533334104e+00,0.000000000000000e+00
	-1.709902902149280e+00,5.272759902839285e-09
208		3.311311214825951e+00,0.000000000000000e+00
	-1.709902902149280e+00,5.303199877951415e-09
209		3.330427623087504e+00,0.000000000000000e+00
	-1.709902902149280e+00,5.333815584957640e-09
210		3.349654391578317e+00,0.000000000000000e+00
	-1.709902902149280e+00,5.364608038369254e-09
211		3.368992157414949e+00,0.000000000000000e+00
	-1.709902902149280e+00,5.395578258554393e-09
212		3.388441561392067e+00,0.000000000000000e+00
	-1.709902902149280e+00,5.426727271771837e-09
213		3.408003248003692e+00,0.000000000000000e+00
	-1.709902902149280e+00,5.458056110205026e-09
214		3.427677865464546e+00,0.000000000000000e+00
	-1.709902902149280e+00,5.489565811996263e-09
215		3.447466065731537e+00,0.000000000000000e+00
	-1.709902902149280e+00,5.521257421281107e-09
216		3.467368504525360e+00,0.000000000000000e+00
	-1.709902902149280e+00,5.553131988222976e-09
217		3.487385841352228e+00,0.000000000000000e+00
	-1.709902902149280e+00,5.585190569047957e-09
218		3.507518739525725e+00,0.000000000000000e+00
	-1.709902902149280e+00,5.617434226079786e-09
219		3.527767866188785e+00,0.000000000000000e+00
	-1.709902902149280e+00,5.649864027775064e-09
220		3.548133892335800e+00,0.000000000000000e+00
	-1.709902902149280e+00,5.682481048758665e-09
221		3.568617492834858e+00,0.000000000000000e+00
	-1.709902902149280e+00,5.715286369859332e-09
222		3.589219346450099e+00,0.000000000000000e+00
	-1.709902902149280e+00,5.748281078145506e-09
223		3.609940135864213e+00,0.000000000000000e+00
	-1.709902902149280e+00,5.781466266961340e-09
224		3.630780547701061e+00,0.000000000000000e+00
	-1.709902902149280e+00,5.814843035962933e-09
225		3.651741272548425e+00,0.000000000000000e+00
	-1.709902902149280e+00,5.848412491154766e-09
226		3.672823004980895e+00,0.000000000000000e+00
	-1.709902902149280e+00,5.882175744926357e-09
227		3.694026443582883e+00,0.000000000000000e+00
	-1.709902902149280e+00,5.916133916089112e-09
228		3.715352290971774e+00,0.000000000000000e+00
	-1.709902902149280e+00,5.950288129913416e-09
229		3.736801253821207e+00,0.000000000000000e+00
	-1.709902902149280e+00,5.984639518165902e-09
230		3.758374042884492e+00,0.000000000000000e+00
	-1.709902902149280e+00,6.019189219146966e-09
231		3.780071373018162e+00,0.000000000000000e+00
	-1.709902902149280e+00,6.053938377728486e-09
232		3.801893963205663e+00,0.000000000000000e+00
	-1.709902902149280e+00,6.088888145391754e-09
233		3.823842536581178e+00,0.000000000000000e+00
	-1.709902902149280e+00,6.124039680265638e-09
234		3.845917820453588e+00,0.000000000000000e+00
	-1.709902902149280e+00,6.159394147164956e-09
235		3.868120546330575e+00,0.000000000000000e+00
	-1.709902902149280e+00,6.194952717629078e-09
236		3.890451449942860e+00,0.000000000000000e+00
	-1.709902902149280e+00,6.230716569960741e-09
237		3.912911271268584e+00,0.000000000000000e+00
	-1.709902902149280e+00,6.266686889265100e-09
238		3.935500754557829e+00,0.000000000000000e+00
	-1.709902902149280e+00,6.302864867488995e-09
239		3.958220648357280e+00,0.000000000000000e+00
	-1.709902902149280e+00,6.339251703460449e-09
240		3.981071705535028e+00,0.000000000000000e+00
	-1.709902902149280e+00,6.375848602928405e-09
241		4.004054683305520e+00,0.000000000000000e+00
	-1.709902902149280e+00,6.412656778602656e-09
242		4.027170343254648e+00,0.000000000000000e+00
	-1.709902902149280e+00,6.449677450194052e-09
243		4.050419451364989e+00,0.000000000000000e+00
	-1.709902902149280e+00,6.486911844454913e-09
244		4.073802778041185e+00,0.000000000000000e+00
	-1.709902902149280e+00,6.524361195219675e-09
245		4.097321098135473e+00,0.000000000000000e+00
	-1.709902902149280e+00,6.562026743445773e-09
246		4.120975190973360e+00,0.000000000000000e+00
	-1.709902902149280e+00,6.599909737254777e-09
247		4.144765840379450e+00,0.000000000000000e+00
	-1.709902902149280e+00,6.638011431973735e-09
248		4.168693834703413e+00,0.000000000000000e+00
	-1.709902902149280e+00,6.676333090176778e-09
249		4.192759966846114e+00,0.000000000000000e+00
	-1.709902902149280e+00,6.714875981726958e-09
250		4.216965034285883e+00,0.000000000000000e+00
	-1.709902902149280e+00,6.753641383818328e-09
251		4.241309839104942e+00,0.000000000000000e+00
	-1.709902902149280e+00,6.792630581018257e-09
252		4.265795188015987e+00,0.000000000000000e+00
	-1.709902902149280e+00,6.831844865310009e-09
253		4.290421892388916e+00,0.000000000000000e+00
	-1.709902902149280e+00,6.871285536135548e-09
254		4.315190768277715e+00,0.000000000000000e+00
	-1.709902902149280e+00,6.910953900438590e-09
255		4.340102636447502e+00,0.000000000000000e+00
	-1.709902902149280e+00,6.950851272707933e-09
256		4.365158322401724e+00,0.000000000000000e+00
	-1.709902902149280e+00,6.990978975020990e-09
257		4.390358656409512e+00,0.000000000000000e+00
	-1.709902902149280e+00,7.031338337087613e-09
258		4.415704473533191e+00,0.000000000000000e+00
	-1.709902902149280e+00,7.071930696294158e-09
259		4.441196613655956e+00,0.000000000000000e+00
	-1.709902902149280e+00,7.112757397747792e-09
260		4.466835921509698e+00,0.000000000000000e+00
	-1.709902902149280e+00,7.153819794321069e-09
261		4.492623246703002e+00,0.000000000000000e+00
	-1.709902902149280e+00,7.195119246696768e-09
262		4.518559443749292e+00,0.000000000000000e+00
	-1.709902902149280e+00,7.236657123412967e-09
263		4.544645372095157e+00,0.000000000000000e+00
	-1.709902902149280e+00,7.278434800908408e-09
264		4.570881896148820e+00,0.000000000000000e+00
	-1.709902902149280e+00,7.320453663568097e-09
265		4.597269885308792e+00,0.000000000000000e+00
	-1.709902902149280e+00,7.362715103769183e-09
266		4.623810213992674e+00,0.000000000000000e+00
	-1.709902902149280e+00,7.405220521927091e-09
267		4.650503761666135e+00,0.000000000000000e+00
	-1.709902902149280e+00,7.447971326541942e-09
268		4.677351412872055e+00,0.000000000000000e+00
	-1.709902902149280e+00,7.490968934245210e-09
269		4.704354057259835e+00,0.000000000000000e+00
	-1.709902902149280e+00,7.534214769846671e-09
270		4.731512589614879e+00,0.000000000000000e+00
	-1.709902902149280e+00,7.577710266381625e-09
271		4.758827909888244e+00,0.000000000000000e+00
	-1.709902902149280e+00,7.621456865158364e-09
272		4.786300923226460e+00,0.000000000000000e+00
	-1.709902902149280e+00,7.665456015805955e-09
273		4.813932540001524e+00,0.000000000000000e+00
	-1.709902902149280e+00,7.709709176322255e-09
274		4.841723675841071e+00,0.000000000000000e+00
	-1.709902902149280e+00,7.754217813122245e-09
275		4.869675251658710e+00,0.000000000000000e+00
	-1.709902902149280e+00,7.798983401086602e-09
276		4.897788193684542e+00,0.000000000000000e+00
	-1.709902902149280e+00,7.844007423610586e-09
277		4.926063433495853e+00,0.000000000000000e+00
	-1.709902902149280e+00,7.889291372653193e-09
278		4.954501908047983e+00,0.000000000000000e+00
	-1.709902902149280e+00,7.934836748786590e-09
279		4.983104559705377e+00,0.000000000000000e+00
	-1.709902902149280e+00,7.980645061245845e-09
280		5.011872336272805e+00,0.000000000000000e+00
	-1.709902902149280e+00,8.026717827978927e-09
281		5.040806191026777e+00,0.000000000000000e+00
	-1.709902902149280e+00,8.073056575697025e-09
282		5.069907082747127e+00,0.000000000000000e+00
	-1.709902902149280e+00,8.119662839925121e-09
283		5.099175975748786e+00,0.000000000000000e+00
	-1.709902902149280e+00,8.166538165052881e-09
284		5.128613839913734e+00,0.000000000000000e+00
	-1.709902902149280e+00,8.213684104385834e-09
285		5.158221650723143e+00,0.000000000000000e+00
	-1.709902902149280e+00,8.261102220196829e-09
286		5.188000389289698e+00,0.000000000000000e+00
	-1.709902902149280e+00,8.308794083777824e-09
287		5.217951042390110e+00,0.000000000000000e+00
	-1.709902902149280e+00,8.356761275491945e-09
288		5.248074602497814e+00,0.000000000000000e+00
	-1.709902902149280e+00,8.405005384825848e-09
289		5.278372067815857e+00,0.000000000000000e+00
	-1.709902902149280e+00,8.453528010442397e-09
290		5.308844442309973e+00,0.000000000000000e+00
	-1.709902902149280e+00,8.502330760233640e-09
291		5.339492735741857e+00,0.000000000000000e+00
	-1.709902902149280e+00,8.551415251374085e-09
292		5.370317963702618e+00,0.000000000000000e+00
	-1.709902902149280e+00,8.600783110374293e-09
293		5.401321147646440e+00,0.000000000000000e+00
	-1.709902902149280e+00,8.650435973134770e-09
294		5.432503314924425e+00,0.000000000000000e+00
	-1.709902902149280e+00,8.700375485000180e-09
295		5.463865498818635e+00,0.000000000000000e+00
	-1.709902902149280e+00,8.750603300813867e-09
296		5.495408738576340e+00,0.000000000000000e+00
	-1.709902902149280e+00,8.801121084972685e-09
297		5.527134079444444e+00,0.000000000000000e+00
	-1.709902902149280e+00,8.851930511482160e-09
298		5.559042572704132e+00,0.000000000000000e+00
	-1.709902902149280e+00,8.903033264011955e-09
299		5.591135275705699e+00,0.000000000000000e+00
	-1.709902902149280e+00,8.954431035951669e-09
300		5.623413251903589e+00,0.000000000000000e+00
	-1.709902902149280e+00,9.006125530466938e-09
301		5.655877570891638e+00,0.000000000000000e+00
	-1.709902902149280e+00,9.058118460555886e-09
302		5.688529308438514e+00,0.000000000000000e+00
	-1.709902902149280e+00,9.110411549105884e-09
303		5.721369546523364e+00,0.000000000000000e+00
	-1.709902902149280e+00,9.163006528950638e-09
304		5.754399373371671e+00,0.000000000000000e+00
	-1.709902902149280e+00,9.215905142927609e-09
305		5.787619883491309e+00,0.000000000000000e+00
	-1.709902902149280e+00,9.269109143935775e-09
306		5.821032177708817e+00,0.000000000000000e+00
	-1.709902902149280e+00,9.322620294993704e-09
307		5.854637363205876e+00,0.000000000000000e+00
	-1.709902902149280e+00,9.376440369297988e-09
308		5.888436553555995e+00,0.000000000000000e+00
	-1.709902902149280e+00,9.430571150281986e-09
309		5.922430868761412e+00,0.000000000000000e+00
	-1.709902902149280e+00,9.485014431674939e-09
310		5.956621435290212e+00,0.000000000000000e+00
	-1.709902902149280e+00,9.539772017561397e-09
311		5.991009386113647e+00,0.000000000000000e+00
	-1.709902902149280e+00,9.594845722440996e-09
312		6.025595860743686e+00,0.000000000000000e+00
	-1.709902902149280e+00,9.650237371288607e-09