Title: * GA CMOS Amp | W=1.974014297415882e-05 L=5.919127899623481e-07 Vbias=0.9301311126184297
Date: Mon Sep  8 18:44:54 2025
Plotname: Operating Point
Flags: real
No. Variables: 10
No. Points:            1
Offset:    0.0000000000000000e+00
Command: Linear Technology Corporation LTspice
Variables:
	0	V(out)	voltage
	1	V(g)	voltage
	2	V(vdd)	voltage
	3	Id(M1)	device_current
	4	Ig(M1)	device_current
	5	Ib(M1)	device_current
	6	Is(M1)	device_current
	7	I(Rload)	device_current
	8	I(Vg)	device_current
	9	I(Vdd)	device_current
Values:
0		6.321577576545289e-01
	9.301311126184296e-01
	1.800000000000000e+00
	1.167759201153604e-04
	0.000000000000000e+00
	-6.421577576542860e-13
	-1.167759194732026e-04
	-1.167842242345471e-04
	0.000000000000000e+00
	-1.167842242345471e-04
