Title: * GA CMOS Amp | W=2.2351947509890582e-05 L=1e-06 Vbias=1.0308725954794844
Date: Mon Sep  8 18:45:22 2025
Plotname: Operating Point
Flags: real
No. Variables: 10
No. Points:            1
Offset:    0.0000000000000000e+00
Command: Linear Technology Corporation LTspice
Variables:
	0	V(out)	voltage
	1	V(g)	voltage
	2	V(vdd)	voltage
	3	Id(M1)	device_current
	4	Ig(M1)	device_current
	5	Ib(M1)	device_current
	6	Is(M1)	device_current
	7	I(Rload)	device_current
	8	I(Vg)	device_current
	9	I(Vdd)	device_current
Values:
0		8.364514797629095e-01
	1.030872595479484e+00
	1.800000000000000e+00
	9.635300328058951e-05
	0.000000000000000e+00
	-8.464514797629094e-13
	-9.635300243413803e-05
	-9.635485202370907e-05
	0.000000000000000e+00
	-9.635485202370907e-05
