Title: * GA CMOS Amp | W=4.813533684846428e-05 L=5.9170462381803e-07 Vbias=0.7111949823564593
Date: Sat Sep  6 22:38:17 2025
Plotname: Operating Point
Flags: real
No. Variables: 12
No. Points:            1
Offset:    0.0000000000000000e+00
Command: Linear Technology Corporation LTspice
Variables:
	0	V(out)	voltage
	1	V(g)	voltage
	2	V(vdd)	voltage
	3	V(m1#dbody)	voltage
	4	V(m1#sbody)	voltage
	5	Id(M1)	device_current
	6	Ig(M1)	device_current
	7	Ib(M1)	device_current
	8	Is(M1)	device_current
	9	I(Rload)	device_current
	10	I(Vg)	device_current
	11	I(Vdd)	device_current
Values:
0		2.491043398209683e-02
	7.111949823564593e-01
	1.800000000000000e+00
	3.424119301033033e-09
	3.423886100154970e-09
	1.775089566017903e-04
	4.806963704451104e-07
	-1.826088134856480e-09
	-1.779878268841006e-04
	-1.775089566017903e-04
	-4.806963704306888e-07
	-1.775089566017903e-04
