Title: * Amplificador CMOS – W=1.472431137293723e-05 L=2.2416995324779414e-06 Vbias=0.7795245977644113
Date: Wed Jul 30 16:08:33 2025
Plotname: Operating Point
Flags: real
No. Variables: 12
No. Points:            1
Offset:    0.0000000000000000e+00
Command: Linear Technology Corporation LTspice
Variables:
	0	V(out)	voltage
	1	V(in)	voltage
	2	V(bias)	voltage
	3	V(vdd)	voltage
	4	Id(M1)	device_current
	5	Ig(M1)	device_current
	6	Ib(M1)	device_current
	7	Is(M1)	device_current
	8	I(Rload)	device_current
	9	I(Vbias)	device_current
	10	I(Vin)	device_current
	11	I(Vdd)	device_current
Values:
0		1.799999971695247e+00
	0.000000000000000e+00
	7.795245977644113e-01
	1.800000000000000e+00
	2.830475345626082e-12
	0.000000000000000e+00
	-2.599524569459657e-12
	-2.309507761664248e-13
	-2.830475342996408e-12
	2.309507761664248e-13
	0.000000000000000e+00
	-2.830475328945148e-12
