Title: * GA CMOS Amp | W=1.734729561550202e-05 L=9.634188005941925e-07 Vbias=1.2974359162909153
Date: Sat Sep  6 22:03:48 2025
Plotname: Operating Point
Flags: real
No. Variables: 12
No. Points:            1
Offset:    0.0000000000000000e+00
Command: Linear Technology Corporation LTspice
Variables:
	0	V(out)	voltage
	1	V(g)	voltage
	2	V(vdd)	voltage
	3	V(m1#dbody)	voltage
	4	V(m1#sbody)	voltage
	5	Id(M1)	device_current
	6	Ig(M1)	device_current
	7	Ib(M1)	device_current
	8	Is(M1)	device_current
	9	I(Rload)	device_current
	10	I(Vg)	device_current
	11	I(Vdd)	device_current
Values:
0		1.038114953031339e-01
	1.297435916290915e+00
	1.800000000000000e+00
	1.472876096883774e-05
	1.472876011659911e-05
	1.696188504696868e-04
	1.328294905801014e-05
	-7.855338791607770e-06
	-1.750464607360891e-04
	-1.696188504696866e-04
	-1.328294905811322e-05
	-1.696188504696866e-04
