Title: * Netlist adaptada do 'CMOS class AB Output STAGES_FINAL.asc'
Date: Sat Oct 18 16:40:38 2025
Plotname: AC Analysis
Flags: complex forward log
No. Variables: 25
No. Points:         1001
Offset:    0.0000000000000000e+00
Command: Linear Technology Corporation LTspice
Variables:
	0	frequency	frequency
	1	V(out)	voltage
	2	V(bias)	voltage
	3	V(in)	voltage
	4	V(vdd)	voltage
	5	Id(M8)	device_current
	6	Ig(M8)	device_current
	7	Ib(M8)	device_current
	8	Is(M8)	device_current
	9	Id(M2)	device_current
	10	Ig(M2)	device_current
	11	Ib(M2)	device_current
	12	Is(M2)	device_current
	13	Id(M6)	device_current
	14	Ig(M6)	device_current
	15	Ib(M6)	device_current
	16	Is(M6)	device_current
	17	Id(M3)	device_current
	18	Ig(M3)	device_current
	19	Ib(M3)	device_current
	20	Is(M3)	device_current
	21	I(V4)	device_current
	22	I(Vdd)	device_current
	23	I(V2)	device_current
	24	I(Vdd1)	device_current
Values:
0		1.000000000000000e+08,0.000000000000000e+00
	0.000000000000000e+00,0.000000000000000e+00
	0.000000000000000e+00,0.000000000000000e+00
	1.000000000000000e+00,0.000000000000000e+00
	0.000000000000000e+00,0.000000000000000e+00
	0.000000000000000e+00,0.000000000000000e+00
	0.000000000000000e+00,0.000000000000000e+00
	0.000000000000000e+00,0.000000000000000e+00
	0.000000000000000e+00,0.000000000000000e+00
	1.525266605056638e-03,2.211506098650559e-06
	0.000000000000000e+00,-2.375559382873146e-06
	-1.386635007814537e-12,-1.481271166221352e-06
	-1.525266603670003e-03,1.645324450443939e-06
	7.545347019163466e-04,-4.121084391254115e-06
	0.000000000000000e+00,9.497687693612507e-06
	0.000000000000000e+00,-1.255518911104278e-06
	-7.545347019163466e-04,-4.121084391254114e-06
	8.258080403909295e-04,-2.413535920453509e-06
	0.000000000000000e+00,7.798078679064332e-06
	-1.000000000000000e-12,-1.252308227319577e-06
	-8.258080393909295e-04,-4.132234531291247e-06
	0.000000000000000e+00,2.375559382873146e-06
	1.580342742307276e-03,1.076114606096922e-05
	-2.351074645447568e-03,-1.709373655087389e-05
	-7.545347019163466e-04,4.121084391254115e-06
1		1.002305238077900e+08,0.000000000000000e+00
	0.000000000000000e+00,0.000000000000000e+00
	0.000000000000000e+00,0.000000000000000e+00
	1.000000000000000e+00,0.000000000000000e+00
	0.000000000000000e+00,0.000000000000000e+00
	0.000000000000000e+00,0.000000000000000e+00
	0.000000000000000e+00,0.000000000000000e+00
	0.000000000000000e+00,0.000000000000000e+00
	0.000000000000000e+00,0.000000000000000e+00
	1.525266605056638e-03,2.216604146718676e-06
	0.000000000000000e+00,-2.381035612818857e-06
	-1.386635007814537e-12,-1.484685848917421e-06
	-1.525266603670003e-03,1.649117315017602e-06
	7.545347019163466e-04,-4.130584471915072e-06
	0.000000000000000e+00,9.519582124935823e-06
	0.000000000000000e+00,-1.258413181105679e-06
	-7.545347019163466e-04,-4.130584471915072e-06
	8.258080403909295e-04,-2.419099695359717e-06
	0.000000000000000e+00,7.816055106969771e-06
	-1.000000000000000e-12,-1.255195095930461e-06
	-8.258080393909295e-04,-4.141760315679592e-06
	0.000000000000000e+00,2.381035612818857e-06
	1.580342742307276e-03,1.078595306463081e-05
	-2.351074645447568e-03,-1.713314168326455e-05
	-7.545347019163466e-04,4.130584471915072e-06
2		1.004615790278395e+08,0.000000000000000e+00
	0.000000000000000e+00,0.000000000000000e+00
	0.000000000000000e+00,0.000000000000000e+00
	1.000000000000000e+00,0.000000000000000e+00
	0.000000000000000e+00,0.000000000000000e+00
	0.000000000000000e+00,0.000000000000000e+00
	0.000000000000000e+00,0.000000000000000e+00
	0.000000000000000e+00,0.000000000000000e+00
	0.000000000000000e+00,0.000000000000000e+00
	1.525266605056638e-03,2.221713947001322e-06
	0.000000000000000e+00,-2.386524466778362e-06
	-1.386635007814537e-12,-1.488108403270064e-06
	-1.525266603670003e-03,1.652918923047105e-06
	7.545347019163466e-04,-4.140106452523712e-06
	0.000000000000000e+00,9.541527028135918e-06
	0.000000000000000e+00,-1.261314123088495e-06
	-7.545347019163466e-04,-4.140106452523712e-06
	8.258080403909295e-04,-2.424676296091696e-06
	0.000000000000000e+00,7.834072974821318e-06
	-1.000000000000000e-12,-1.258088619460793e-06
	-8.258080393909295e-04,-4.151308059268831e-06
	0.000000000000000e+00,2.386524466778362e-06
	1.580342742307276e-03,1.081081725434183e-05
	-2.351074645447568e-03,-1.717263765386686e-05
	-7.545347019163466e-04,4.140106452523712e-06
3		1.006931668851804e+08,0.000000000000000e+00
	0.000000000000000e+00,0.000000000000000e+00
	0.000000000000000e+00,0.000000000000000e+00
	1.000000000000000e+00,0.000000000000000e+00
	0.000000000000000e+00,0.000000000000000e+00
	0.000000000000000e+00,0.000000000000000e+00
	0.000000000000000e+00,0.000000000000000e+00
	0.000000000000000e+00,0.000000000000000e+00
	0.000000000000000e+00,0.000000000000000e+00
	1.525266605056638e-03,2.226835526590150e-06
	0.000000000000000e+00,-2.392025973853019e-06
	-1.386635007814537e-12,-1.491538847425325e-06
	-1.525266603670003e-03,1.656729294688193e-06
	7.545347019163466e-04,-4.149650383564627e-06
	0.000000000000000e+00,9.563522519562484e-06
	0.000000000000000e+00,-1.264221752433230e-06
	-7.545347019163466e-04,-4.149650383564627e-06
	8.258080403909295e-04,-2.430265752216026e-06
	0.000000000000000e+00,7.852132378147922e-06
	-1.000000000000000e-12,-1.260988813251746e-06
	-8.258080393909295e-04,-4.160877812680149e-06
	0.000000000000000e+00,2.392025973853019e-06
	1.580342742307276e-03,1.083573876192975e-05
	-2.351074645447568e-03,-1.721222467208452e-05
	-7.545347019163466e-04,4.149650383564627e-06
4		1.009252886076684e+08,0.000000000000000e+00
	0.000000000000000e+00,0.000000000000000e+00
	0.000000000000000e+00,0.000000000000000e+00
	1.000000000000000e+00,0.000000000000000e+00
	0.000000000000000e+00,0.000000000000000e+00
	0.000000000000000e+00,0.000000000000000e+00
	0.000000000000000e+00,0.000000000000000e+00
	0.000000000000000e+00,0.000000000000000e+00
	0.000000000000000e+00,0.000000000000000e+00
	1.525266605056638e-03,2.231968912639265e-06
	0.000000000000000e+00,-2.397540163211270e-06
	-1.386635007814537e-12,-1.494977199571076e-06
	-1.525266603670003e-03,1.660548450143080e-06
	7.545347019163466e-04,-4.159216315638792e-06
	0.000000000000000e+00,9.585568715833432e-06
	0.000000000000000e+00,-1.267136084555849e-06
	-7.545347019163466e-04,-4.159216315638791e-06
	8.258080403909295e-04,-2.435868093367451e-06
	0.000000000000000e+00,7.870233412698738e-06
	-1.000000000000000e-12,-1.263895692679859e-06
	-8.258080393909295e-04,-4.170469626651427e-06
	0.000000000000000e+00,2.397540163211270e-06
	1.580342742307276e-03,1.086071771952592e-05
	-2.351074645447568e-03,-1.725190294780398e-05
	-7.545347019163466e-04,4.159216315638792e-06
5		1.011579454259898e+08,0.000000000000000e+00
	0.000000000000000e+00,0.000000000000000e+00
	0.000000000000000e+00,0.000000000000000e+00
	1.000000000000000e+00,0.000000000000000e+00
	0.000000000000000e+00,0.000000000000000e+00
	0.000000000000000e+00,0.000000000000000e+00
	0.000000000000000e+00,0.000000000000000e+00
	0.000000000000000e+00,0.000000000000000e+00
	0.000000000000000e+00,0.000000000000000e+00
	1.525266605056638e-03,2.237114132365370e-06
	0.000000000000000e+00,-2.403067064088798e-06
	-1.386635007814537e-12,-1.498423477937119e-06
	-1.525266603670003e-03,1.664376409660547e-06
	7.545347019163466e-04,-4.168804299463823e-06
	0.000000000000000e+00,9.607665733835493e-06
	0.000000000000000e+00,-1.270057134907847e-06
	-7.545347019163466e-04,-4.168804299463822e-06
	8.258080403909295e-04,-2.441483349249022e-06
	0.000000000000000e+00,7.888376174443647e-06
	-1.000000000000000e-12,-1.266809273157118e-06
	-8.258080393909295e-04,-4.180083552037506e-06
	0.000000000000000e+00,2.403067064088798e-06
	1.580342742307276e-03,1.088575425956630e-05
	-2.351074645447568e-03,-1.729167269139549e-05
	-7.545347019163466e-04,4.168804299463823e-06
6		1.013911385736679e+08,0.000000000000000e+00
	0.000000000000000e+00,0.000000000000000e+00
	0.000000000000000e+00,0.000000000000000e+00
	1.000000000000000e+00,0.000000000000000e+00
	0.000000000000000e+00,0.000000000000000e+00
	0.000000000000000e+00,0.000000000000000e+00
	0.000000000000000e+00,0.000000000000000e+00
	0.000000000000000e+00,0.000000000000000e+00
	0.000000000000000e+00,0.000000000000000e+00
	1.525266605056638e-03,2.242271213047905e-06
	0.000000000000000e+00,-2.408606705788681e-06
	-1.386635007814537e-12,-1.501877700795278e-06
	-1.525266603670003e-03,1.668213193536055e-06
	7.545347019163466e-04,-4.178414385874258e-06
	0.000000000000000e+00,9.629813690724861e-06
	0.000000000000000e+00,-1.272984918976345e-06
	-7.545347019163466e-04,-4.178414385874258e-06
	8.258080403909295e-04,-2.447111549632268e-06
	0.000000000000000e+00,7.906560759573770e-06
	-1.000000000000000e-12,-1.269729570131036e-06
	-8.258080393909295e-04,-4.189719639810465e-06
	0.000000000000000e+00,2.408606705788681e-06
	1.580342742307276e-03,1.091084851479211e-05
	-2.351074645447568e-03,-1.733153411371427e-05
	-7.545347019163466e-04,4.178414385874258e-06
7		1.016248692870695e+08,0.000000000000000e+00
	0.000000000000000e+00,0.000000000000000e+00
	0.000000000000000e+00,0.000000000000000e+00
	1.000000000000000e+00,0.000000000000000e+00
	0.000000000000000e+00,0.000000000000000e+00
	0.000000000000000e+00,0.000000000000000e+00
	0.000000000000000e+00,0.000000000000000e+00
	0.000000000000000e+00,0.000000000000000e+00
	0.000000000000000e+00,0.000000000000000e+00
	1.525266605056638e-03,2.247440182029202e-06
	0.000000000000000e+00,-2.414159117681550e-06
	-1.386635007814537e-12,-1.505339886459500e-06
	-1.525266603670003e-03,1.672058822111849e-06
	7.545347019163466e-04,-4.188046625821819e-06
	0.000000000000000e+00,9.652012703927799e-06
	0.000000000000000e+00,-1.275919452284161e-06
	-7.545347019163466e-04,-4.188046625821819e-06
	8.258080403909295e-04,-2.452752724357348e-06
	0.000000000000000e+00,7.924787264501967e-06
	-1.000000000000000e-12,-1.272656599084737e-06
	-8.258080393909295e-04,-4.199377941059880e-06
	0.000000000000000e+00,2.414159117681550e-06
	1.580342742307276e-03,1.093600061825060e-05
	-2.351074645447568e-03,-1.737148742610162e-05
	-7.545347019163466e-04,4.188046625821819e-06
8		1.018591388054117e+08,0.000000000000000e+00
	0.000000000000000e+00,0.000000000000000e+00
	0.000000000000000e+00,0.000000000000000e+00
	1.000000000000000e+00,0.000000000000000e+00
	0.000000000000000e+00,0.000000000000000e+00
	0.000000000000000e+00,0.000000000000000e+00
	0.000000000000000e+00,0.000000000000000e+00
	0.000000000000000e+00,0.000000000000000e+00
	0.000000000000000e+00,0.000000000000000e+00
	1.525266605056638e-03,2.252621066714617e-06
	0.000000000000000e+00,-2.419724329205738e-06
	-1.386635007814537e-12,-1.508810053285947e-06
	-1.525266603670003e-03,1.675913315777069e-06
	7.545347019163466e-04,-4.197701070375682e-06
	0.000000000000000e+00,9.674262891141264e-06
	0.000000000000000e+00,-1.278860750389900e-06
	-7.545347019163466e-04,-4.197701070375682e-06
	8.258080403909295e-04,-2.458406903333209e-06
	0.000000000000000e+00,7.943055785863350e-06
	-1.000000000000000e-12,-1.275590375537038e-06
	-8.258080393909295e-04,-4.209058506993104e-06
	0.000000000000000e+00,2.419724329205738e-06
	1.580342742307276e-03,1.096121070329572e-05
	-2.351074645447568e-03,-1.741153284038602e-05
	-7.545347019163466e-04,4.197701070375682e-06
9		1.020939483707680e+08,0.000000000000000e+00
	0.000000000000000e+00,0.000000000000000e+00
	0.000000000000000e+00,0.000000000000000e+00
	1.000000000000000e+00,0.000000000000000e+00
	0.000000000000000e+00,0.000000000000000e+00
	0.000000000000000e+00,0.000000000000000e+00
	0.000000000000000e+00,0.000000000000000e+00
	0.000000000000000e+00,0.000000000000000e+00
	0.000000000000000e+00,0.000000000000000e+00
	1.525266605056638e-03,2.257813894572687e-06
	0.000000000000000e+00,-2.425302369867443e-06
	-1.386635007814537e-12,-1.512288219673100e-06
	-1.525266603670003e-03,1.679776694967857e-06
	7.545347019163466e-04,-4.207377770722753e-06
	0.000000000000000e+00,9.696564370333536e-06
	0.000000000000000e+00,-1.281808828888030e-06
	-7.545347019163466e-04,-4.207377770722752e-06
	8.258080403909295e-04,-2.464074116537744e-06
	0.000000000000000e+00,7.961366420515805e-06
	-1.000000000000000e-12,-1.278530915042528e-06
	-8.258080393909295e-04,-4.218761388935531e-06
	0.000000000000000e+00,2.425302369867443e-06
	1.580342742307276e-03,1.098647890358884e-05
	-2.351074645447568e-03,-1.745167056888428e-05
	-7.545347019163466e-04,4.207377770722753e-06
10		1.023292992280754e+08,0.000000000000000e+00
	0.000000000000000e+00,0.000000000000000e+00
	0.000000000000000e+00,0.000000000000000e+00
	1.000000000000000e+00,0.000000000000000e+00
	0.000000000000000e+00,0.000000000000000e+00
	0.000000000000000e+00,0.000000000000000e+00
	0.000000000000000e+00,0.000000000000000e+00
	0.000000000000000e+00,0.000000000000000e+00
	0.000000000000000e+00,0.000000000000000e+00
	1.525266605056638e-03,2.263018693135267e-06
	0.000000000000000e+00,-2.430893269240883e-06
	-1.386635007814537e-12,-1.515774404061850e-06
	-1.525266603670003e-03,1.683648980167466e-06
	7.545347019163466e-04,-4.217076778167932e-06
	0.000000000000000e+00,9.718917259744834e-06
	0.000000000000000e+00,-1.284763703408970e-06
	-7.545347019163466e-04,-4.217076778167931e-06
	8.258080403909295e-04,-2.469754394017955e-06
	0.000000000000000e+00,7.979719265540490e-06
	-1.000000000000000e-12,-1.281478233191656e-06
	-8.258080393909295e-04,-4.228486638330878e-06
	0.000000000000000e+00,2.430893269240883e-06
	1.580342742307276e-03,1.101180535309944e-05
	-2.351074645447568e-03,-1.749190082440263e-05
	-7.545347019163466e-04,4.217076778167932e-06
11		1.025651926251407e+08,0.000000000000000e+00
	0.000000000000000e+00,0.000000000000000e+00
	0.000000000000000e+00,0.000000000000000e+00
	1.000000000000000e+00,0.000000000000000e+00
	0.000000000000000e+00,0.000000000000000e+00
	0.000000000000000e+00,0.000000000000000e+00
	0.000000000000000e+00,0.000000000000000e+00
	0.000000000000000e+00,0.000000000000000e+00
	0.000000000000000e+00,0.000000000000000e+00
	1.525266605056638e-03,2.268235489997680e-06
	0.000000000000000e+00,-2.436497056968446e-06
	-1.386635007814537e-12,-1.519268624935599e-06
	-1.525266603670003e-03,1.687530191906365e-06
	7.545347019163466e-04,-4.226798144134391e-06
	0.000000000000000e+00,9.741321677887954e-06
	0.000000000000000e+00,-1.287725389619172e-06
	-7.545347019163466e-04,-4.226798144134390e-06
	8.258080403909295e-04,-2.475447765890105e-06
	0.000000000000000e+00,7.998114418242363e-06
	-1.000000000000000e-12,-1.284432345610809e-06
	-8.258080393909295e-04,-4.238234306741449e-06
	0.000000000000000e+00,2.436497056968446e-06
	1.580342742307276e-03,1.103719018610582e-05
	-2.351074645447568e-03,-1.753222382023789e-05
	-7.545347019163466e-04,4.226798144134391e-06
12		1.028016298126473e+08,0.000000000000000e+00
	0.000000000000000e+00,0.000000000000000e+00
	0.000000000000000e+00,0.000000000000000e+00
	1.000000000000000e+00,0.000000000000000e+00
	0.000000000000000e+00,0.000000000000000e+00
	0.000000000000000e+00,0.000000000000000e+00
	0.000000000000000e+00,0.000000000000000e+00
	0.000000000000000e+00,0.000000000000000e+00
	0.000000000000000e+00,0.000000000000000e+00
	1.525266605056638e-03,2.273464312818866e-06
	0.000000000000000e+00,-2.442113762760860e-06
	-1.386635007814537e-12,-1.522770900820358e-06
	-1.525266603670003e-03,1.691420350762352e-06
	7.545347019163466e-04,-4.236541920163845e-06
	0.000000000000000e+00,9.763777743548889e-06
	0.000000000000000e+00,-1.290693903221200e-06
	-7.545347019163466e-04,-4.236541920163845e-06
	8.258080403909295e-04,-2.481154262339886e-06
	0.000000000000000e+00,8.016551976150692e-06
	-1.000000000000000e-12,-1.287393267962397e-06
	-8.258080393909295e-04,-4.248004445848410e-06
	0.000000000000000e+00,2.442113762760860e-06
	1.580342742307276e-03,1.106263353719585e-05
	-2.351074645447568e-03,-1.757263977017856e-05
	-7.545347019163466e-04,4.236541920163845e-06
13		1.030386120441616e+08,0.000000000000000e+00
	0.000000000000000e+00,0.000000000000000e+00
	0.000000000000000e+00,0.000000000000000e+00
	1.000000000000000e+00,0.000000000000000e+00
	0.000000000000000e+00,0.000000000000000e+00
	0.000000000000000e+00,0.000000000000000e+00
	0.000000000000000e+00,0.000000000000000e+00
	0.000000000000000e+00,0.000000000000000e+00
	0.000000000000000e+00,0.000000000000000e+00
	1.525266605056638e-03,2.278705189321522e-06
	0.000000000000000e+00,-2.447743416397339e-06
	-1.386635007814537e-12,-1.526281250284847e-06
	-1.525266603670003e-03,1.695319477360664e-06
	7.545347019163466e-04,-4.246308157916824e-06
	0.000000000000000e+00,9.786285575787467e-06
	0.000000000000000e+00,-1.293669259953819e-06
	-7.545347019163466e-04,-4.246308157916824e-06
	8.258080403909295e-04,-2.486873913622575e-06
	0.000000000000000e+00,8.035032037019576e-06
	-1.000000000000000e-12,-1.290361015944935e-06
	-8.258080393909295e-04,-4.257797107452066e-06
	0.000000000000000e+00,2.447743416397339e-06
	1.580342742307276e-03,1.108813554126764e-05
	-2.351074645447568e-03,-1.761314888850599e-05
	-7.545347019163466e-04,4.246308157916824e-06
14		1.032761405761397e+08,0.000000000000000e+00
	0.000000000000000e+00,0.000000000000000e+00
	0.000000000000000e+00,0.000000000000000e+00
	1.000000000000000e+00,0.000000000000000e+00
	0.000000000000000e+00,0.000000000000000e+00
	0.000000000000000e+00,0.000000000000000e+00
	0.000000000000000e+00,0.000000000000000e+00
	0.000000000000000e+00,0.000000000000000e+00
	0.000000000000000e+00,0.000000000000000e+00
	1.525266605056638e-03,2.283958147292254e-06
	0.000000000000000e+00,-2.453386047725747e-06
	-1.386635007814537e-12,-1.529799691940588e-06
	-1.525266603670003e-03,1.699227592374081e-06
	7.545347019163466e-04,-4.256096909172951e-06
	0.000000000000000e+00,9.808845293937973e-06
	0.000000000000000e+00,-1.296651475592073e-06
	-7.545347019163466e-04,-4.256096909172950e-06
	8.258080403909295e-04,-2.492606750063194e-06
	0.000000000000000e+00,8.053554698828458e-06
	-1.000000000000000e-12,-1.293335605293129e-06
	-8.258080393909295e-04,-4.267612343472136e-06
	0.000000000000000e+00,2.453386047725747e-06
	1.580342742307276e-03,1.111369633353029e-05
	-2.351074645447568e-03,-1.765375138999549e-05
	-7.545347019163466e-04,4.256096909172951e-06
15		1.035142166679343e+08,0.000000000000000e+00
	0.000000000000000e+00,0.000000000000000e+00
	0.000000000000000e+00,0.000000000000000e+00
	1.000000000000000e+00,0.000000000000000e+00
	0.000000000000000e+00,0.000000000000000e+00
	0.000000000000000e+00,0.000000000000000e+00
	0.000000000000000e+00,0.000000000000000e+00
	0.000000000000000e+00,0.000000000000000e+00
	0.000000000000000e+00,0.000000000000000e+00
	1.525266605056638e-03,2.289223214581721e-06
	0.000000000000000e+00,-2.459041686662752e-06
	-1.386635007814537e-12,-1.533326244442008e-06
	-1.525266603670003e-03,1.703144716523039e-06
	7.545347019163466e-04,-4.265908225831207e-06
	0.000000000000000e+00,9.831457017609786e-06
	0.000000000000000e+00,-1.299640565947372e-06
	-7.545347019163466e-04,-4.265908225831206e-06
	8.258080403909295e-04,-2.498352802056668e-06
	0.000000000000000e+00,8.072120059782645e-06
	-1.000000000000000e-12,-1.296317051777954e-06
	-8.258080393909295e-04,-4.277450205948022e-06
	0.000000000000000e+00,2.459041686662752e-06
	1.580342742307276e-03,1.113931604950455e-05
	-2.351074645447568e-03,-1.769444748991748e-05
	-7.545347019163466e-04,4.265908225831207e-06
16		1.037528415818012e+08,0.000000000000000e+00
	0.000000000000000e+00,0.000000000000000e+00
	0.000000000000000e+00,0.000000000000000e+00
	1.000000000000000e+00,0.000000000000000e+00
	0.000000000000000e+00,0.000000000000000e+00
	0.000000000000000e+00,0.000000000000000e+00
	0.000000000000000e+00,0.000000000000000e+00
	0.000000000000000e+00,0.000000000000000e+00
	0.000000000000000e+00,0.000000000000000e+00
	1.525266605056638e-03,2.294500419104787e-06
	0.000000000000000e+00,-2.464710363193989e-06
	-1.386635007814537e-12,-1.536860926486539e-06
	-1.525266603670003e-03,1.707070870575742e-06
	7.545347019163466e-04,-4.275742159910218e-06
	0.000000000000000e+00,9.854120866688012e-06
	0.000000000000000e+00,-1.302636546867577e-06
	-7.545347019163466e-04,-4.275742159910217e-06
	8.258080403909295e-04,-2.504112100067996e-06
	0.000000000000000e+00,8.090728218313832e-06
	-1.000000000000000e-12,-1.299305371206743e-06
	-8.258080393909295e-04,-4.287310747039093e-06
	0.000000000000000e+00,2.464710363193989e-06
	1.580342742307276e-03,1.116499482502363e-05
	-2.351074645447568e-03,-1.773523740403864e-05
	-7.545347019163466e-04,4.275742159910218e-06
17		1.039920165829058e+08,0.000000000000000e+00
	0.000000000000000e+00,0.000000000000000e+00
	0.000000000000000e+00,0.000000000000000e+00
	1.000000000000000e+00,0.000000000000000e+00
	0.000000000000000e+00,0.000000000000000e+00
	0.000000000000000e+00,0.000000000000000e+00
	0.000000000000000e+00,0.000000000000000e+00
	0.000000000000000e+00,0.000000000000000e+00
	0.000000000000000e+00,0.000000000000000e+00
	1.525266605056638e-03,2.299789788840663e-06
	0.000000000000000e+00,-2.470392107374218e-06
	-1.386635007814537e-12,-1.540403756814712e-06
	-1.525266603670003e-03,1.711006075348266e-06
	7.545347019163466e-04,-4.285598763548524e-06
	0.000000000000000e+00,9.876836961334128e-06
	0.000000000000000e+00,-1.305639434237080e-06
	-7.545347019163466e-04,-4.285598763548523e-06
	8.258080403909295e-04,-2.509884674632403e-06
	0.000000000000000e+00,8.109379273080627e-06
	-1.000000000000000e-12,-1.302300579423268e-06
	-8.258080393909295e-04,-4.297194019024956e-06
	0.000000000000000e+00,2.470392107374218e-06
	1.580342742307276e-03,1.119073279623383e-05
	-2.351074645447568e-03,-1.777612134862302e-05
	-7.545347019163466e-04,4.285598763548524e-06
18		1.042317429393303e+08,0.000000000000000e+00
	0.000000000000000e+00,0.000000000000000e+00
	0.000000000000000e+00,0.000000000000000e+00
	1.000000000000000e+00,0.000000000000000e+00
	0.000000000000000e+00,0.000000000000000e+00
	0.000000000000000e+00,0.000000000000000e+00
	0.000000000000000e+00,0.000000000000000e+00
	0.000000000000000e+00,0.000000000000000e+00
	0.000000000000000e+00,0.000000000000000e+00
	1.525266605056638e-03,2.305091351833064e-06
	0.000000000000000e+00,-2.476086949327479e-06
	-1.386635007814537e-12,-1.543954754210261e-06
	-1.525266603670003e-03,1.714950351704676e-06
	7.545347019163466e-04,-4.295478089004855e-06
	0.000000000000000e+00,9.899605421986601e-06
	0.000000000000000e+00,-1.308649243976891e-06
	-7.545347019163466e-04,-4.295478089004855e-06
	8.258080403909295e-04,-2.515670556355502e-06
	0.000000000000000e+00,8.128073322969062e-06
	-1.000000000000000e-12,-1.305302692307826e-06
	-8.258080393909295e-04,-4.307100074305735e-06
	0.000000000000000e+00,2.476086949327479e-06
	1.580342742307276e-03,1.121653009959531e-05
	-2.351074645447568e-03,-1.781709954043322e-05
	-7.545347019163466e-04,4.295478089004855e-06
19		1.044720219220799e+08,0.000000000000000e+00
	0.000000000000000e+00,0.000000000000000e+00
	0.000000000000000e+00,0.000000000000000e+00
	1.000000000000000e+00,0.000000000000000e+00
	0.000000000000000e+00,0.000000000000000e+00
	0.000000000000000e+00,0.000000000000000e+00
	0.000000000000000e+00,0.000000000000000e+00
	0.000000000000000e+00,0.000000000000000e+00
	0.000000000000000e+00,0.000000000000000e+00
	1.525266605056638e-03,2.310405136190346e-06
	0.000000000000000e+00,-2.481794919247259e-06
	-1.386635007814537e-12,-1.547513937500220e-06
	-1.525266603670003e-03,1.718903720557134e-06
	7.545347019163466e-04,-4.305380188658413e-06
	0.000000000000000e+00,9.922426369361547e-06
	0.000000000000000e+00,-1.311665992044721e-06
	-7.545347019163466e-04,-4.305380188658412e-06
	8.258080403909295e-04,-2.521469775913464e-06
	0.000000000000000e+00,8.146810467093131e-06
	-1.000000000000000e-12,-1.308311725777319e-06
	-8.258080393909295e-04,-4.317028965402349e-06
	0.000000000000000e+00,2.481794919247259e-06
	1.580342742307276e-03,1.124238687188280e-05
	-2.351074645447568e-03,-1.785817219673156e-05
	-7.545347019163466e-04,4.305380188658413e-06
20		1.047128548050899e+08,0.000000000000000e+00
	0.000000000000000e+00,0.000000000000000e+00
	0.000000000000000e+00,0.000000000000000e+00
	1.000000000000000e+00,0.000000000000000e+00
	0.000000000000000e+00,0.000000000000000e+00
	0.000000000000000e+00,0.000000000000000e+00
	0.000000000000000e+00,0.000000000000000e+00
	0.000000000000000e+00,0.000000000000000e+00
	0.000000000000000e+00,0.000000000000000e+00
	1.525266605056638e-03,2.315731170085667e-06
	0.000000000000000e+00,-2.487516047396646e-06
	-1.386635007814537e-12,-1.551081325555026e-06
	-1.525266603670003e-03,1.722866202866005e-06
	7.545347019163466e-04,-4.315305115009143e-06
	0.000000000000000e+00,9.945299924453353e-06
	0.000000000000000e+00,-1.314689694435068e-06
	-7.545347019163466e-04,-4.315305115009142e-06
	8.258080403909295e-04,-2.527282364053172e-06
	0.000000000000000e+00,8.165590804795305e-06
	-1.000000000000000e-12,-1.311327695785343e-06
	-8.258080393909295e-04,-4.326980744956790e-06
	0.000000000000000e+00,2.487516047396646e-06
	1.580342742307276e-03,1.126830325018634e-05
	-2.351074645447568e-03,-1.789933953528115e-05
	-7.545347019163466e-04,4.315305115009143e-06
21		1.049542428652321e+08,0.000000000000000e+00
	0.000000000000000e+00,0.000000000000000e+00
	0.000000000000000e+00,0.000000000000000e+00
	1.000000000000000e+00,0.000000000000000e+00
	0.000000000000000e+00,0.000000000000000e+00
	0.000000000000000e+00,0.000000000000000e+00
	0.000000000000000e+00,0.000000000000000e+00
	0.000000000000000e+00,0.000000000000000e+00
	0.000000000000000e+00,0.000000000000000e+00
	1.525266605056638e-03,2.321069481757128e-06
	0.000000000000000e+00,-2.493250364108491e-06
	-1.386635007814537e-12,-1.554656937288615e-06
	-1.525266603670003e-03,1.726837819639978e-06
	7.545347019163466e-04,-4.325252920678017e-06
	0.000000000000000e+00,9.968226208535336e-06
	0.000000000000000e+00,-1.317720367179302e-06
	-7.545347019163466e-04,-4.325252920678016e-06
	8.258080403909295e-04,-2.533108351592392e-06
	0.000000000000000e+00,8.184414435647067e-06
	-1.000000000000000e-12,-1.314350618322272e-06
	-8.258080393909295e-04,-4.336955465732402e-06
	0.000000000000000e+00,2.493250364108491e-06
	1.580342742307276e-03,1.129427937191199e-05
	-2.351074645447568e-03,-1.794060177434714e-05
	-7.545347019163466e-04,4.325252920678017e-06
22		1.051961873823222e+08,0.000000000000000e+00
	0.000000000000000e+00,0.000000000000000e+00
	0.000000000000000e+00,0.000000000000000e+00
	1.000000000000000e+00,0.000000000000000e+00
	0.000000000000000e+00,0.000000000000000e+00
	0.000000000000000e+00,0.000000000000000e+00
	0.000000000000000e+00,0.000000000000000e+00
	0.000000000000000e+00,0.000000000000000e+00
	0.000000000000000e+00,0.000000000000000e+00
	1.525266605056638e-03,2.326420099507925e-06
	0.000000000000000e+00,-2.498997899785571e-06
	-1.386635007814537e-12,-1.558240791658523e-06
	-1.525266603670003e-03,1.730818591936169e-06
	7.545347019163466e-04,-4.335223658407310e-06
	0.000000000000000e+00,9.991205343160368e-06
	0.000000000000000e+00,-1.320758026345748e-06
	-7.545347019163466e-04,-4.335223658407310e-06
	8.258080403909295e-04,-2.538947769419927e-06
	0.000000000000000e+00,8.203281459449430e-06
	-1.000000000000000e-12,-1.317380509415339e-06
	-8.258080393909295e-04,-4.346953180614163e-06
	0.000000000000000e+00,2.498997899785571e-06
	1.580342742307276e-03,1.132031537478256e-05
	-2.351074645447568e-03,-1.798195913269779e-05
	-7.545347019163466e-04,4.335223658407310e-06
23		1.054386896391258e+08,0.000000000000000e+00
	0.000000000000000e+00,0.000000000000000e+00
	0.000000000000000e+00,0.000000000000000e+00
	1.000000000000000e+00,0.000000000000000e+00
	0.000000000000000e+00,0.000000000000000e+00
	0.000000000000000e+00,0.000000000000000e+00
	0.000000000000000e+00,0.000000000000000e+00
	0.000000000000000e+00,0.000000000000000e+00
	0.000000000000000e+00,0.000000000000000e+00
	1.525266605056638e-03,2.331783051706502e-06
	0.000000000000000e+00,-2.504758684900748e-06
	-1.386635007814537e-12,-1.561832907665991e-06
	-1.525266603670003e-03,1.734808540860237e-06
	7.545347019163466e-04,-4.345217381060882e-06
	0.000000000000000e+00,1.001423745016153e-05
	0.000000000000000e+00,-1.323802688039771e-06
	-7.545347019163466e-04,-4.345217381060881e-06
	8.258080403909295e-04,-2.544800648495793e-06
	0.000000000000000e+00,8.222191976233481e-06
	-1.000000000000000e-12,-1.320417385128726e-06
	-8.258080393909295e-04,-4.356973942608962e-06
	0.000000000000000e+00,2.504758684900748e-06
	1.580342742307276e-03,1.134641139683834e-05
	-2.351074645447568e-03,-1.802341182960572e-05
	-7.545347019163466e-04,4.345217381060882e-06
24		1.056817509213657e+08,0.000000000000000e+00
	0.000000000000000e+00,0.000000000000000e+00
	0.000000000000000e+00,0.000000000000000e+00
	1.000000000000000e+00,0.000000000000000e+00
	0.000000000000000e+00,0.000000000000000e+00
	0.000000000000000e+00,0.000000000000000e+00
	0.000000000000000e+00,0.000000000000000e+00
	0.000000000000000e+00,0.000000000000000e+00
	0.000000000000000e+00,0.000000000000000e+00
	1.525266605056638e-03,2.337158366786696e-06
	0.000000000000000e+00,-2.510532749997131e-06
	-1.386635007814537e-12,-1.565433304356059e-06
	-1.525266603670003e-03,1.738807687566494e-06
	7.545347019163466e-04,-4.355234141624455e-06
	0.000000000000000e+00,1.003732265165278e-05
	0.000000000000000e+00,-1.326854368403866e-06
	-7.545347019163466e-04,-4.355234141624454e-06
	8.258080403909295e-04,-2.550667019851369e-06
	0.000000000000000e+00,8.241146086260896e-06
	-1.000000000000000e-12,-1.323461261563645e-06
	-8.258080393909295e-04,-4.367017804845881e-06
	0.000000000000000e+00,2.510532749997131e-06
	1.580342742307276e-03,1.137256757643785e-05
	-2.351074645447568e-03,-1.806496008484900e-05
	-7.545347019163466e-04,4.355234141624455e-06
25		1.059253725177288e+08,0.000000000000000e+00
	0.000000000000000e+00,0.000000000000000e+00
	0.000000000000000e+00,0.000000000000000e+00
	1.000000000000000e+00,0.000000000000000e+00
	0.000000000000000e+00,0.000000000000000e+00
	0.000000000000000e+00,0.000000000000000e+00
	0.000000000000000e+00,0.000000000000000e+00
	0.000000000000000e+00,0.000000000000000e+00
	0.000000000000000e+00,0.000000000000000e+00
	1.525266605056638e-03,2.342546073247895e-06
	0.000000000000000e+00,-2.516320125688238e-06