Title: * GA CMOS Amp | W=3.974698015793619e-05 L=3.4018036538324214e-07 Vbias=1.4457714277153724
Date: Mon Sep  8 20:12:58 2025
Plotname: AC Analysis
Flags: complex forward log nocompression
No. Variables: 3
No. Points:         1801
Offset:    0.0000000000000000e+00
Command: Linear Technology Corporation LTspice
Variables:
	0	frequency	frequency
	1	V(out)	voltage
	2	V(g)	voltage
Values:
0		1.000000000000000e+00,0.000000000000000e+00
	-6.161529391920285e-03,2.881625777735278e-12
	1.000000000000000e+00,0.000000000000000e+00
1		1.011579454259899e+00,0.000000000000000e+00
	-6.161529391920285e-03,2.914993431622708e-12
	1.000000000000000e+00,0.000000000000000e+00
2		1.023292992280754e+00,0.000000000000000e+00
	-6.161529391920285e-03,2.948747464732088e-12
	1.000000000000000e+00,0.000000000000000e+00
3		1.035142166679344e+00,0.000000000000000e+00
	-6.161529391920285e-03,2.982892351123946e-12
	1.000000000000000e+00,0.000000000000000e+00
4		1.047128548050900e+00,0.000000000000000e+00
	-6.161529391920285e-03,3.017432616665986e-12
	1.000000000000000e+00,0.000000000000000e+00
5		1.059253725177289e+00,0.000000000000000e+00
	-6.161529391920285e-03,3.052372839632997e-12
	1.000000000000000e+00,0.000000000000000e+00
6		1.071519305237607e+00,0.000000000000000e+00
	-6.161529391920285e-03,3.087717651313683e-12
	1.000000000000000e+00,0.000000000000000e+00
7		1.083926914021204e+00,0.000000000000000e+00
	-6.161529391920285e-03,3.123471736624551e-12
	1.000000000000000e+00,0.000000000000000e+00
8		1.096478196143186e+00,0.000000000000000e+00
	-6.161529391920285e-03,3.159639834730882e-12
	1.000000000000000e+00,0.000000000000000e+00
9		1.109174815262402e+00,0.000000000000000e+00
	-6.161529391920285e-03,3.196226739674902e-12
	1.000000000000000e+00,0.000000000000000e+00
10		1.122018454301964e+00,0.000000000000000e+00
	-6.161529391920285e-03,3.233237301011232e-12
	1.000000000000000e+00,0.000000000000000e+00
11		1.135010815672316e+00,0.000000000000000e+00
	-6.161529391920285e-03,3.270676424449690e-12
	1.000000000000000e+00,0.000000000000000e+00
12		1.148153621496884e+00,0.000000000000000e+00
	-6.161529391920285e-03,3.308549072505533e-12
	1.000000000000000e+00,0.000000000000000e+00
13		1.161448613840344e+00,0.000000000000000e+00
	-6.161529391920285e-03,3.346860265157240e-12
	1.000000000000000e+00,0.000000000000000e+00
14		1.174897554939531e+00,0.000000000000000e+00
	-6.161529391920285e-03,3.385615080511901e-12
	1.000000000000000e+00,0.000000000000000e+00
15		1.188502227437020e+00,0.000000000000000e+00
	-6.161529391920285e-03,3.424818655478312e-12
	1.000000000000000e+00,0.000000000000000e+00
16		1.202264434617414e+00,0.000000000000000e+00
	-6.161529391920285e-03,3.464476186447871e-12
	1.000000000000000e+00,0.000000000000000e+00
17		1.216186000646369e+00,0.000000000000000e+00
	-6.161529391920285e-03,3.504592929983351e-12
	1.000000000000000e+00,0.000000000000000e+00
18		1.230268770812383e+00,0.000000000000000e+00
	-6.161529391920285e-03,3.545174203515657e-12
	1.000000000000000e+00,0.000000000000000e+00
19		1.244514611771387e+00,0.000000000000000e+00
	-6.161529391920285e-03,3.586225386048639e-12
	1.000000000000000e+00,0.000000000000000e+00
20		1.258925411794169e+00,0.000000000000000e+00
	-6.161529391920285e-03,3.627751918872076e-12
	1.000000000000000e+00,0.000000000000000e+00
21		1.273503081016663e+00,0.000000000000000e+00
	-6.161529391920285e-03,3.669759306282915e-12
	1.000000000000000e+00,0.000000000000000e+00
22		1.288249551693136e+00,0.000000000000000e+00
	-6.161529391920285e-03,3.712253116314855e-12
	1.000000000000000e+00,0.000000000000000e+00
23		1.303166778452301e+00,0.000000000000000e+00
	-6.161529391920285e-03,3.755238981476389e-12
	1.000000000000000e+00,0.000000000000000e+00
24		1.318256738556409e+00,0.000000000000000e+00
	-6.161529391920285e-03,3.798722599497384e-12
	1.000000000000000e+00,0.000000000000000e+00
25		1.333521432163326e+00,0.000000000000000e+00
	-6.161529391920285e-03,3.842709734084306e-12
	1.000000000000000e+00,0.000000000000000e+00
26		1.348962882591656e+00,0.000000000000000e+00
	-6.161529391920285e-03,3.887206215684202e-12
	1.000000000000000e+00,0.000000000000000e+00
27		1.364583136588927e+00,0.000000000000000e+00
	-6.161529391920285e-03,3.932217942257511e-12
	1.000000000000000e+00,0.000000000000000e+00
28		1.380384264602887e+00,0.000000000000000e+00
	-6.161529391920285e-03,3.977750880059835e-12
	1.000000000000000e+00,0.000000000000000e+00
29		1.396368361055940e+00,0.000000000000000e+00
	-6.161529391920285e-03,4.023811064432759e-12
	1.000000000000000e+00,0.000000000000000e+00
30		1.412537544622757e+00,0.000000000000000e+00
	-6.161529391920285e-03,4.070404600603832e-12
	1.000000000000000e+00,0.000000000000000e+00
31		1.428893958511106e+00,0.000000000000000e+00
	-6.161529391920285e-03,4.117537664495805e-12
	1.000000000000000e+00,0.000000000000000e+00
32		1.445439770745931e+00,0.000000000000000e+00
	-6.161529391920285e-03,4.165216503545243e-12
	1.000000000000000e+00,0.000000000000000e+00
33		1.462177174456721e+00,0.000000000000000e+00
	-6.161529391920285e-03,4.213447437530621e-12
	1.000000000000000e+00,0.000000000000000e+00
34		1.479108388168211e+00,0.000000000000000e+00
	-6.161529391920285e-03,4.262236859409993e-12
	1.000000000000000e+00,0.000000000000000e+00
35		1.496235656094437e+00,0.000000000000000e+00
	-6.161529391920285e-03,4.311591236168386e-12
	1.000000000000000e+00,0.000000000000000e+00
36		1.513561248436212e+00,0.000000000000000e+00
	-6.161529391920285e-03,4.361517109674977e-12
	1.000000000000000e+00,0.000000000000000e+00
37		1.531087461682034e+00,0.000000000000000e+00
	-6.161529391920285e-03,4.412021097550223e-12
	1.000000000000000e+00,0.000000000000000e+00
38		1.548816618912485e+00,0.000000000000000e+00
	-6.161529391920285e-03,4.463109894043015e-12
	1.000000000000000e+00,0.000000000000000e+00
39		1.566751070108153e+00,0.000000000000000e+00
	-6.161529391920285e-03,4.514790270917986e-12
	1.000000000000000e+00,0.000000000000000e+00
40		1.584893192461118e+00,0.000000000000000e+00
	-6.161529391920285e-03,4.567069078353116e-12
	1.000000000000000e+00,0.000000000000000e+00
41		1.603245390690046e+00,0.000000000000000e+00
	-6.161529391920285e-03,4.619953245847703e-12
	1.000000000000000e+00,0.000000000000000e+00
42		1.621810097358934e+00,0.000000000000000e+00
	-6.161529391920285e-03,4.673449783140866e-12
	1.000000000000000e+00,0.000000000000000e+00
43		1.640589773199544e+00,0.000000000000000e+00
	-6.161529391920285e-03,4.727565781140678e-12
	1.000000000000000e+00,0.000000000000000e+00
44		1.659586907437565e+00,0.000000000000000e+00
	-6.161529391920285e-03,4.782308412864058e-12
	1.000000000000000e+00,0.000000000000000e+00
45		1.678804018122565e+00,0.000000000000000e+00
	-6.161529391920285e-03,4.837684934387547e-12
	1.000000000000000e+00,0.000000000000000e+00
46		1.698243652461749e+00,0.000000000000000e+00
	-6.161529391920285e-03,4.893702685809088e-12
	1.000000000000000e+00,0.000000000000000e+00
47		1.717908387157593e+00,0.000000000000000e+00
	-6.161529391920285e-03,4.950369092220957e-12
	1.000000000000000e+00,0.000000000000000e+00
48		1.737800828749381e+00,0.000000000000000e+00
	-6.161529391920285e-03,5.007691664693945e-12
	1.000000000000000e+00,0.000000000000000e+00
49		1.757923613958698e+00,0.000000000000000e+00
	-6.161529391920285e-03,5.065678001272944e-12
	1.000000000000000e+00,0.000000000000000e+00
50		1.778279410038929e+00,0.000000000000000e+00
	-6.161529391920285e-03,5.124335787984058e-12
	1.000000000000000e+00,0.000000000000000e+00
51		1.798870915128794e+00,0.000000000000000e+00
	-6.161529391920285e-03,5.183672799853382e-12
	1.000000000000000e+00,0.000000000000000e+00
52		1.819700858609990e+00,0.000000000000000e+00
	-6.161529391920285e-03,5.243696901937564e-12
	1.000000000000000e+00,0.000000000000000e+00
53		1.840772001468962e+00,0.000000000000000e+00
	-6.161529391920285e-03,5.304416050366321e-12
	1.000000000000000e+00,0.000000000000000e+00
54		1.862087136662874e+00,0.000000000000000e+00
	-6.161529391920285e-03,5.365838293397010e-12
	1.000000000000000e+00,0.000000000000000e+00
55		1.883649089489807e+00,0.000000000000000e+00
	-6.161529391920285e-03,5.427971772481414e-12
	1.000000000000000e+00,0.000000000000000e+00
56		1.905460717963254e+00,0.000000000000000e+00
	-6.161529391920285e-03,5.490824723344883e-12
	1.000000000000000e+00,0.000000000000000e+00
57		1.927524913190943e+00,0.000000000000000e+00
	-6.161529391920285e-03,5.554405477077976e-12
	1.000000000000000e+00,0.000000000000000e+00
58		1.949844599758053e+00,0.000000000000000e+00
	-6.161529391920285e-03,5.618722461240730e-12
	1.000000000000000e+00,0.000000000000000e+00
59		1.972422736114861e+00,0.000000000000000e+00
	-6.161529391920285e-03,5.683784200979733e-12
	1.000000000000000e+00,0.000000000000000e+00
60		1.995262314968888e+00,0.000000000000000e+00
	-6.161529391920285e-03,5.749599320158111e-12
	1.000000000000000e+00,0.000000000000000e+00
61		2.018366363681569e+00,0.000000000000000e+00
	-6.161529391920285e-03,5.816176542498626e-12
	1.000000000000000e+00,0.000000000000000e+00
62		2.041737944669538e+00,0.000000000000000e+00
	-6.161529391920285e-03,5.883524692739984e-12
	1.000000000000000e+00,0.000000000000000e+00
63		2.065380155810538e+00,0.000000000000000e+00
	-6.161529391920285e-03,5.951652697806551e-12
	1.000000000000000e+00,0.000000000000000e+00
64		2.089296130854049e+00,0.000000000000000e+00
	-6.161529391920285e-03,6.020569587991604e-12
	1.000000000000000e+00,0.000000000000000e+00
65		2.113489039836656e+00,0.000000000000000e+00
	-6.161529391920285e-03,6.090284498154289e-12
	1.000000000000000e+00,0.000000000000000e+00
66		2.137962089502242e+00,0.000000000000000e+00
	-6.161529391920285e-03,6.160806668930436e-12
	1.000000000000000e+00,0.000000000000000e+00
67		2.162718523727030e+00,0.000000000000000e+00
	-6.161529391920285e-03,6.232145447957395e-12
	1.000000000000000e+00,0.000000000000000e+00
68		2.187761623949563e+00,0.000000000000000e+00
	-6.161529391920285e-03,6.304310291113053e-12
	1.000000000000000e+00,0.000000000000000e+00
69		2.213094709605648e+00,0.000000000000000e+00
	-6.161529391920285e-03,6.377310763769205e-12
	1.000000000000000e+00,0.000000000000000e+00
70		2.238721138568351e+00,0.000000000000000e+00
	-6.161529391920285e-03,6.451156542059429e-12
	1.000000000000000e+00,0.000000000000000e+00
71		2.264644307593071e+00,0.000000000000000e+00
	-6.161529391920285e-03,6.525857414161652e-12
	1.000000000000000e+00,0.000000000000000e+00
72		2.290867652767784e+00,0.000000000000000e+00
	-6.161529391920285e-03,6.601423281595556e-12
	1.000000000000000e+00,0.000000000000000e+00
73		2.317394649968490e+00,0.000000000000000e+00
	-6.161529391920285e-03,6.677864160535022e-12
	1.000000000000000e+00,0.000000000000000e+00
74		2.344228815319934e+00,0.000000000000000e+00
	-6.161529391920285e-03,6.755190183135753e-12
	1.000000000000000e+00,0.000000000000000e+00
75		2.371373705661667e+00,0.000000000000000e+00
	-6.161529391920285e-03,6.833411598878290e-12
	1.000000000000000e+00,0.000000000000000e+00
76		2.398832919019502e+00,0.000000000000000e+00
	-6.161529391920285e-03,6.912538775926561e-12
	1.000000000000000e+00,0.000000000000000e+00
77		2.426610095082428e+00,0.000000000000000e+00
	-6.161529391920285e-03,6.992582202502178e-12
	1.000000000000000e+00,0.000000000000000e+00
78		2.454708915685043e+00,0.000000000000000e+00
	-6.161529391920285e-03,7.073552488274632e-12
	1.000000000000000e+00,0.000000000000000e+00
79		2.483133105295583e+00,0.000000000000000e+00
	-6.161529391920285e-03,7.155460365767601e-12
	1.000000000000000e+00,0.000000000000000e+00
80		2.511886431509593e+00,0.000000000000000e+00
	-6.161529391920285e-03,7.238316691781524e-12
	1.000000000000000e+00,0.000000000000000e+00
81		2.540972705549319e+00,0.000000000000000e+00
	-6.161529391920285e-03,7.322132448832667e-12
	1.000000000000000e+00,0.000000000000000e+00
82		2.570395782768878e+00,0.000000000000000e+00
	-6.161529391920285e-03,7.406918746608846e-12
	1.000000000000000e+00,0.000000000000000e+00
83		2.600159563165286e+00,0.000000000000000e+00
	-6.161529391920285e-03,7.492686823441988e-12
	1.000000000000000e+00,0.000000000000000e+00
84		2.630267991895396e+00,0.000000000000000e+00
	-6.161529391920285e-03,7.579448047797778e-12
	1.000000000000000e+00,0.000000000000000e+00
85		2.660725059798824e+00,0.000000000000000e+00
	-6.161529391920285e-03,7.667213919782530e-12
	1.000000000000000e+00,0.000000000000000e+00
86		2.691534803926931e+00,0.000000000000000e+00
	-6.161529391920285e-03,7.755996072667511e-12
	1.000000000000000e+00,0.000000000000000e+00
87		2.722701308077928e+00,0.000000000000000e+00
	-6.161529391920285e-03,7.845806274430915e-12
	1.000000000000000e+00,0.000000000000000e+00
88		2.754228703338182e+00,0.000000000000000e+00
	-6.161529391920285e-03,7.936656429317713e-12
	1.000000000000000e+00,0.000000000000000e+00
89		2.786121168629787e+00,0.000000000000000e+00
	-6.161529391920285e-03,8.028558579417528e-12
	1.000000000000000e+00,0.000000000000000e+00
90		2.818382931264471e+00,0.000000000000000e+00
	-6.161529391920285e-03,8.121524906260810e-12
	1.000000000000000e+00,0.000000000000000e+00
91		2.851018267503926e+00,0.000000000000000e+00
	-6.161529391920285e-03,8.215567732433484e-12
	1.000000000000000e+00,0.000000000000000e+00
92		2.884031503126623e+00,0.000000000000000e+00
	-6.161529391920285e-03,8.310699523210298e-12
	1.000000000000000e+00,0.000000000000000e+00
93		2.917427014001185e+00,0.000000000000000e+00
	-6.161529391920285e-03,8.406932888207072e-12
	1.000000000000000e+00,0.000000000000000e+00
94		2.951209226666404e+00,0.000000000000000e+00
	-6.161529391920285e-03,8.504280583052104e-12
	1.000000000000000e+00,0.000000000000000e+00
95		2.985382618917978e+00,0.000000000000000e+00
	-6.161529391920285e-03,8.602755511076901e-12
	1.000000000000000e+00,0.000000000000000e+00
96		3.019951720402035e+00,0.000000000000000e+00
	-6.161529391920285e-03,8.702370725026504e-12
	1.000000000000000e+00,0.000000000000000e+00
97		3.054921113215533e+00,0.000000000000000e+00
	-6.161529391920285e-03,8.803139428789629e-12
	1.000000000000000e+00,0.000000000000000e+00
98		3.090295432513610e+00,0.000000000000000e+00
	-6.161529391920285e-03,8.905074979148809e-12
	1.000000000000000e+00,0.000000000000000e+00
99		3.126079367123975e+00,0.000000000000000e+00
	-6.161529391920285e-03,9.008190887550829e-12
	1.000000000000000e+00,0.000000000000000e+00
100		3.162277660168400e+00,0.000000000000000e+00
	-6.161529391920285e-03,9.112500821897661e-12
	1.000000000000000e+00,0.000000000000000e+00
101		3.198895109691419e+00,0.000000000000000e+00
	-6.161529391920285e-03,9.218018608358114e-12
	1.000000000000000e+00,0.000000000000000e+00
102		3.235936569296304e+00,0.000000000000000e+00
	-6.161529391920285e-03,9.324758233200490e-12
	1.000000000000000e+00,0.000000000000000e+00
103		3.273406948788404e+00,0.000000000000000e+00
	-6.161529391920285e-03,9.432733844646448e-12
	1.000000000000000e+00,0.000000000000000e+00
104		3.311311214825934e+00,0.000000000000000e+00
	-6.161529391920285e-03,9.541959754746329e-12
	1.000000000000000e+00,0.000000000000000e+00
105		3.349654391578300e+00,0.000000000000000e+00
	-6.161529391920285e-03,9.652450441276207e-12
	1.000000000000000e+00,0.000000000000000e+00
106		3.388441561392050e+00,0.000000000000000e+00
	-6.161529391920285e-03,9.764220549656903e-12
	1.000000000000000e+00,0.000000000000000e+00
107		3.427677865464528e+00,0.000000000000000e+00
	-6.161529391920285e-03,9.877284894895217e-12
	1.000000000000000e+00,0.000000000000000e+00
108		3.467368504525342e+00,0.000000000000000e+00
	-6.161529391920285e-03,9.991658463547643e-12
	1.000000000000000e+00,0.000000000000000e+00
109		3.507518739525706e+00,0.000000000000000e+00
	-6.161529391920285e-03,1.010735641570682e-11
	1.000000000000000e+00,0.000000000000000e+00
110		3.548133892335781e+00,0.000000000000000e+00
	-6.161529391920285e-03,1.022439408701099e-11
	1.000000000000000e+00,0.000000000000000e+00
111		3.589219346450079e+00,0.000000000000000e+00
	-6.161529391920285e-03,1.034278699067671e-11
	1.000000000000000e+00,0.000000000000000e+00
112		3.630780547701041e+00,0.000000000000000e+00
	-6.161529391920285e-03,1.046255081955513e-11
	1.000000000000000e+00,0.000000000000000e+00
113		3.672823004980875e+00,0.000000000000000e+00
	-6.161529391920285e-03,1.058370144821203e-11
	1.000000000000000e+00,0.000000000000000e+00
114		3.715352290971754e+00,0.000000000000000e+00
	-6.161529391920285e-03,1.070625493503203e-11
	1.000000000000000e+00,0.000000000000000e+00
115		3.758374042884471e+00,0.000000000000000e+00
	-6.161529391920285e-03,1.083022752434705e-11
	1.000000000000000e+00,0.000000000000000e+00
116		3.801893963205642e+00,0.000000000000000e+00
	-6.161529391920285e-03,1.095563564858951e-11
	1.000000000000000e+00,0.000000000000000e+00
117		3.845917820453566e+00,0.000000000000000e+00
	-6.161529391920285e-03,1.108249593047047e-11
	1.000000000000000e+00,0.000000000000000e+00
118		3.890451449942837e+00,0.000000000000000e+00
	-6.161529391920285e-03,1.121082518518287e-11
	1.000000000000000e+00,0.000000000000000e+00
119		3.935500754557806e+00,0.000000000000000e+00
	-6.161529391920285e-03,1.134064042263041e-11
	1.000000000000000e+00,0.000000000000000e+00
120		3.981071705535005e+00,0.000000000000000e+00
	-6.161529391920285e-03,1.147195884968222e-11
	1.000000000000000e+00,0.000000000000000e+00
121		4.027170343254624e+00,0.000000000000000e+00
	-6.161529391920285e-03,1.160479787245355e-11
	1.000000000000000e+00,0.000000000000000e+00
122		4.073802778041161e+00,0.000000000000000e+00
	-6.161529391920285e-03,1.173917509861299e-11
	1.000000000000000e+00,0.000000000000000e+00
123		4.120975190973336e+00,0.000000000000000e+00
	-6.161529391920285e-03,1.187510833971632e-11
	1.000000000000000e+00,0.000000000000000e+00
124		4.168693834703389e+00,0.000000000000000e+00
	-6.161529391920285e-03,1.201261561356741e-11
	1.000000000000000e+00,0.000000000000000e+00
125		4.216965034285859e+00,0.000000000000000e+00
	-6.161529391920285e-03,1.215171514660646e-11
	1.000000000000000e+00,0.000000000000000e+00
126		4.265795188015963e+00,0.000000000000000e+00
	-6.161529391920285e-03,1.229242537632591e-11
	1.000000000000000e+00,0.000000000000000e+00
127		4.315190768277690e+00,0.000000000000000e+00
	-6.161529391920285e-03,1.243476495371429e-11
	1.000000000000000e+00,0.000000000000000e+00
128		4.365158322401698e+00,0.000000000000000e+00
	-6.161529391920285e-03,1.257875274572842e-11
	1.000000000000000e+00,0.000000000000000e+00
129		4.415704473533165e+00,0.000000000000000e+00
	-6.161529391920285e-03,1.272440783779415e-11
	1.000000000000000e+00,0.000000000000000e+00
130		4.466835921509672e+00,0.000000000000000e+00
	-6.161529391920285e-03,1.287174953633618e-11
	1.000000000000000e+00,0.000000000000000e+00
131		4.518559443749265e+00,0.000000000000000e+00
	-6.161529391920285e-03,1.302079737133706e-11
	1.000000000000000e+00,0.000000000000000e+00
132		4.570881896148792e+00,0.000000000000000e+00
	-6.161529391920285e-03,1.317157109892587e-11
	1.000000000000000e+00,0.000000000000000e+00
133		4.623810213992646e+00,0.000000000000000e+00
	-6.161529391920285e-03,1.332409070399688e-11
	1.000000000000000e+00,0.000000000000000e+00
134		4.677351412872025e+00,0.000000000000000e+00
	-6.161529391920285e-03,1.347837640285855e-11
	1.000000000000000e+00,0.000000000000000e+00
135		4.731512589614849e+00,0.000000000000000e+00
	-6.161529391920285e-03,1.363444864591315e-11
	1.000000000000000e+00,0.000000000000000e+00
136		4.786300923226428e+00,0.000000000000000e+00
	-6.161529391920285e-03,1.379232812036743e-11
	1.000000000000000e+00,0.000000000000000e+00
137		4.841723675841039e+00,0.000000000000000e+00
	-6.161529391920285e-03,1.395203575297474e-11
	1.000000000000000e+00,0.000000000000000e+00
138		4.897788193684509e+00,0.000000000000000e+00
	-6.161529391920285e-03,1.411359271280878e-11
	1.000000000000000e+00,0.000000000000000e+00
139		4.954501908047950e+00,0.000000000000000e+00
	-6.161529391920285e-03,1.427702041406959e-11
	1.000000000000000e+00,0.000000000000000e+00
140		5.011872336272772e+00,0.000000000000000e+00
	-6.161529391920285e-03,1.444234051892195e-11
	1.000000000000000e+00,0.000000000000000e+00
141		5.069907082747093e+00,0.000000000000000e+00
	-6.161529391920285e-03,1.460957494036669e-11
	1.000000000000000e+00,0.000000000000000e+00
142		5.128613839913699e+00,0.000000000000000e+00
	-6.161529391920285e-03,1.477874584514522e-11
	1.000000000000000e+00,0.000000000000000e+00
143		5.188000389289662e+00,0.000000000000000e+00
	-6.161529391920285e-03,1.494987565667775e-11
	1.000000000000000e+00,0.000000000000000e+00
144		5.248074602497778e+00,0.000000000000000e+00
	-6.161529391920285e-03,1.512298705803542e-11
	1.000000000000000e+00,0.000000000000000e+00
145		5.308844442309936e+00,0.000000000000000e+00
	-6.161529391920285e-03,1.529810299494698e-11
	1.000000000000000e+00,0.000000000000000e+00
146		5.370317963702581e+00,0.000000000000000e+00
	-6.161529391920285e-03,1.547524667884018e-11
	1.000000000000000e+00,0.000000000000000e+00
147		5.432503314924387e+00,0.000000000000000e+00
	-6.161529391920285e-03,1.565444158991846e-11
	1.000000000000000e+00,0.000000000000000e+00
148		5.495408738576301e+00,0.000000000000000e+00
	-6.161529391920285e-03,1.583571148027317e-11
	1.000000000000000e+00,0.000000000000000e+00
149		5.559042572704092e+00,0.000000000000000e+00
	-6.161529391920285e-03,1.601908037703195e-11
	1.000000000000000e+00,0.000000000000000e+00
150		5.623413251903548e+00,0.000000000000000e+00
	-6.161529391920285e-03,1.620457258554343e-11
	1.000000000000000e+00,0.000000000000000e+00
151		5.688529308438473e+00,0.000000000000000e+00
	-6.161529391920285e-03,1.639221269259894e-11
	1.000000000000000e+00,0.000000000000000e+00
152		5.754399373371629e+00,0.000000000000000e+00
	-6.161529391920285e-03,1.658202556969142e-11
	1.000000000000000e+00,0.000000000000000e+00
153		5.821032177708775e+00,0.000000000000000e+00
	-6.161529391920285e-03,1.677403637631213e-11
	1.000000000000000e+00,0.000000000000000e+00
154		5.888436553555951e+00,0.000000000000000e+00
	-6.161529391920285e-03,1.696827056328551e-11
	1.000000000000000e+00,0.000000000000000e+00
155		5.956621435290167e+00,0.000000000000000e+00
	-6.161529391920285e-03,1.716475387614265e-11
	1.000000000000000e+00,0.000000000000000e+00
156		6.025595860743641e+00,0.000000000000000e+00
	-6.161529391920285e-03,1.736351235853387e-11
	1.000000000000000e+00,0.000000000000000e+00
157		6.095368972401756e+00,0.000000000000000e+00
	-6.161529391920285e-03,1.756457235568069e-11
	1.000000000000000e+00,0.000000000000000e+00
158		6.165950018614887e+00,0.000000000000000e+00
	-6.161529391920285e-03,1.776796051786798e-11
	1.000000000000000e+00,0.000000000000000e+00
159		6.237348354824259e+00,0.000000000000000e+00
	-6.161529391920285e-03,1.797370380397631e-11
	1.000000000000000e+00,0.000000000000000e+00
160		6.309573444802000e+00,0.000000000000000e+00
	-6.161529391920285e-03,1.818182948505542e-11
	1.000000000000000e+00,0.000000000000000e+00
161		6.382634861905555e+00,0.000000000000000e+00
	-6.161529391920285e-03,1.839236514793889e-11
	1.000000000000000e+00,0.000000000000000e+00
162		6.456542290346625e+00,0.000000000000000e+00
	-6.161529391920285e-03,1.860533869890081e-11
	1.000000000000000e+00,0.000000000000000e+00
163		6.531305526474794e+00,0.000000000000000e+00
	-6.161529391920285e-03,1.882077836735465e-11
	1.000000000000000e+00,0.000000000000000e+00
164		6.606934480076032e+00,0.000000000000000e+00
	-6.161529391920285e-03,1.903871270959512e-11
	1.000000000000000e+00,0.000000000000000e+00
165		6.683439175686219e+00,0.000000000000000e+00
	-6.161529391920285e-03,1.925917061258323e-11
	1.000000000000000e+00,0.000000000000000e+00
166		6.760829753919892e+00,0.000000000000000e+00
	-6.161529391920285e-03,1.948218129777522e-11
	1.000000000000000e+00,0.000000000000000e+00
167		6.839116472814369e+00,0.000000000000000e+00
	-6.161529391920285e-03,1.970777432499585e-11
	1.000000000000000e+00,0.000000000000000e+00
168		6.918309709189442e+00,0.000000000000000e+00
	-6.161529391920285e-03,1.993597959635655e-11
	1.000000000000000e+00,0.000000000000000e+00
169		6.998419960022813e+00,0.000000000000000e+00
	-6.161529391920285e-03,2.016682736021883e-11
	1.000000000000000e+00,0.000000000000000e+00
170		7.079457843841459e+00,0.000000000000000e+00
	-6.161529391920285e-03,2.040034821520375e-11
	1.000000000000000e+00,0.000000000000000e+00
171		7.161434102129101e+00,0.000000000000000e+00
	-6.161529391920285e-03,2.063657311424771e-11
	1.000000000000000e+00,0.000000000000000e+00
172		7.244359600749983e+00,0.000000000000000e+00
	-6.161529391920285e-03,2.087553336870520e-11
	1.000000000000000e+00,0.000000000000000e+00
173		7.328245331389125e+00,0.000000000000000e+00
	-6.161529391920285e-03,2.111726065249910e-11
	1.000000000000000e+00,0.000000000000000e+00
174		7.413102413009261e+00,0.000000000000000e+00
	-6.161529391920285e-03,2.136178700631907e-11
	1.000000000000000e+00,0.000000000000000e+00
175		7.498942093324645e+00,0.000000000000000e+00
	-6.161529391920285e-03,2.160914484186845e-11
	1.000000000000000e+00,0.000000000000000e+00
176		7.585775750291926e+00,0.000000000000000e+00
	-6.161529391920285e-03,2.185936694616038e-11
	1.000000000000000e+00,0.000000000000000e+00
177		7.673614893618280e+00,0.000000000000000e+00
	-6.161529391920285e-03,2.211248648586379e-11
	1.000000000000000e+00,0.000000000000000e+00
178		7.762471166287009e+00,0.000000000000000e+00
	-6.161529391920285e-03,2.236853701169947e-11
	1.000000000000000e+00,0.000000000000000e+00
179		7.852356346100811e+00,0.000000000000000e+00
	-6.161529391920285e-03,2.262755246288729e-11
	1.000000000000000e+00,0.000000000000000e+00
180		7.943282347242909e+00,0.000000000000000e+00
	-6.161529391920285e-03,2.288956717164475e-11
	1.000000000000000e+00,0.000000000000000e+00
181		8.035261221856269e+00,0.000000000000000e+00
	-6.161529391920285e-03,2.315461586773769e-11
	1.000000000000000e+00,0.000000000000000e+00
182		8.128305161641091e+00,0.000000000000000e+00
	-6.161529391920285e-03,2.342273368308368e-11
	1.000000000000000e+00,0.000000000000000e+00
183		8.222426499470812e+00,0.000000000000000e+00
	-6.161529391920285e-03,2.369395615640874e-11
	1.000000000000000e+00,0.000000000000000e+00
184		8.317637711026812e+00,0.000000000000000e+00
	-6.161529391920285e-03,2.396831923795791e-11
	1.000000000000000e+00,0.000000000000000e+00
185		8.413951416452054e+00,0.000000000000000e+00
	-6.161529391920285e-03,2.424585929426049e-11
	1.000000000000000e+00,0.000000000000000e+00
186		8.511380382023869e+00,0.000000000000000e+00
	-6.161529391920285e-03,2.452661311295032e-11
	1.000000000000000e+00,0.000000000000000e+00
187		8.609937521846113e+00,0.000000000000000e+00
	-6.161529391920285e-03,2.481061790764195e-11
	1.000000000000000e+00,0.000000000000000e+00
188		8.709635899560915e+00,0.000000000000000e+00
	-6.161529391920285e-03,2.509791132286332e-11
	1.000000000000000e+00,0.000000000000000e+00
189		8.810488730080252e+00,0.000000000000000e+00
	-6.161529391920285e-03,2.538853143904540e-11
	1.000000000000000e+00,0.000000000000000e+00
190		8.912509381337568e+00,0.000000000000000e+00
	-6.161529391920285e-03,2.568251677756983e-11
	1.000000000000000e+00,0.000000000000000e+00
191		9.015711376059683e+00,0.000000000000000e+00
	-6.161529391920285e-03,2.597990630587477e-11
	1.000000000000000e+00,0.000000000000000e+00
192		9.120108393559214e+00,0.000000000000000e+00
	-6.161529391920285e-03,2.628073944262011e-11
	1.000000000000000e+00,0.000000000000000e+00
193		9.225714271547750e+00,0.000000000000000e+00
	-6.161529391920285e-03,2.658505606291223e-11
	1.000000000000000e+00,0.000000000000000e+00
194		9.332543007970031e+00,0.000000000000000e+00
	-6.161529391920285e-03,2.689289650358957e-11
	1.000000000000000e+00,0.000000000000000e+00
195		9.440608762859357e+00,0.000000000000000e+00
	-6.161529391920285e-03,2.720430156856907e-11
	1.000000000000000e+00,0.000000000000000e+00
196		9.549925860214485e+00,0.000000000000000e+00
	-6.161529391920285e-03,2.751931253425481e-11
	1.000000000000000e+00,0.000000000000000e+00
197		9.660508789898261e+00,0.000000000000000e+00
	-6.161529391920285e-03,2.783797115500906e-11
	1.000000000000000e+00,0.000000000000000e+00
198		9.772372209558236e+00,0.000000000000000e+00
	-6.161529391920285e-03,2.816031966868686e-11
	1.000000000000000e+00,0.000000000000000e+00
199		9.885530946569521e+00,0.000000000000000e+00
	-6.161529391920285e-03,2.848640080223455e-11
	1.000000000000000e+00,0.000000000000000e+00
200		1.000000000000014e+01,0.000000000000000e+00
	-6.161529391920285e-03,2.881625777735316e-11
	1.000000000000000e+00,0.000000000000000e+00
201		1.011579454259912e+01,0.000000000000000e+00
	-6.161529391920285e-03,2.914993431622748e-11
	1.000000000000000e+00,0.000000000000000e+00
202		1.023292992280768e+01,0.000000000000000e+00
	-6.161529391920285e-03,2.948747464732128e-11
	1.000000000000000e+00,0.000000000000000e+00
203		1.035142166679358e+01,0.000000000000000e+00
	-6.161529391920285e-03,2.982892351123986e-11
	1.000000000000000e+00,0.000000000000000e+00
204		1.047128548050914e+01,0.000000000000000e+00
	-6.161529391920285e-03,3.017432616666027e-11
	1.000000000000000e+00,0.000000000000000e+00
205		1.059253725177304e+01,0.000000000000000e+00
	-6.161529391920285e-03,3.052372839633038e-11
	1.000000000000000e+00,0.000000000000000e+00
206		1.071519305237621e+01,0.000000000000000e+00
	-6.161529391920285e-03,3.087717651313725e-11
	1.000000000000000e+00,0.000000000000000e+00
207		1.083926914021219e+01,0.000000000000000e+00
	-6.161529391920285e-03,3.123471736624595e-11
	1.000000000000000e+00,0.000000000000000e+00
208		1.096478196143201e+01,0.000000000000000e+00
	-6.161529391920285e-03,3.159639834730925e-11
	1.000000000000000e+00,0.000000000000000e+00
209		1.109174815262417e+01,0.000000000000000e+00
	-6.161529391920285e-03,3.196226739674945e-11
	1.000000000000000e+00,0.000000000000000e+00
210		1.122018454301980e+01,0.000000000000000e+00
	-6.161529391920285e-03,3.233237301011276e-11
	1.000000000000000e+00,0.000000000000000e+00
211		1.135010815672332e+01,0.000000000000000e+00
	-6.161529391920285e-03,3.270676424449734e-11
	1.000000000000000e+00,0.000000000000000e+00