Title: * GA CMOS Amp | W=1.4459731383344697e-05 L=7.191327579666897e-07 Vbias=1.4818071903798158
Date: Sat Sep  6 22:09:58 2025
Plotname: AC Analysis
Flags: complex forward log
No. Variables: 13
No. Points:          901
Offset:    0.0000000000000000e+00
Command: Linear Technology Corporation LTspice
Variables:
	0	frequency	frequency
	1	V(out)	voltage
	2	V(g)	voltage
	3	V(vdd)	voltage
	4	V(m1#dbody)	voltage
	5	V(m1#sbody)	voltage
	6	Id(M1)	device_current
	7	Ig(M1)	device_current
	8	Ib(M1)	device_current
	9	Is(M1)	device_current
	10	I(Rload)	device_current
	11	I(Vg)	device_current
	12	I(Vdd)	device_current
Values:
0		1.000000000000000e+00,0.000000000000000e+00
	2.145100350735962e-02,7.336612472868561e-10
	1.000000000000000e+00,0.000000000000000e+00
	0.000000000000000e+00,0.000000000000000e+00
	3.288983781217654e-04,8.503536515170333e-14
	3.288983779592398e-04,7.787440866545976e-14
	-2.145100350735961e-06,-7.336612472868567e-14
	2.052292991384265e-04,2.715937289692854e-12
	-1.754124683883698e-04,-4.208213157954113e-14
	-2.767173039932079e-05,-2.600489033384627e-12
	2.145100350735962e-06,7.336612472868561e-14
	-2.052292991384097e-04,-2.715937289692854e-12
	2.145100350735962e-06,7.336612472868561e-14
1		1.023292992280754e+00,0.000000000000000e+00
	2.145100350735962e-02,7.507504130565973e-10
	1.000000000000000e+00,0.000000000000000e+00
	0.000000000000000e+00,0.000000000000000e+00
	3.288983781217654e-04,8.701609325577309e-14
	3.288983779592398e-04,7.968833666537263e-14
	-2.145100350735961e-06,-7.507504130565997e-14
	2.052292991384265e-04,2.779199596016681e-12
	-1.754124683883698e-04,-4.306235034558107e-14
	-2.767173039932079e-05,-2.661062204365440e-12
	2.145100350735962e-06,7.507504130565973e-14
	-2.052292991384097e-04,-2.779199596016681e-12
	2.145100350735962e-06,7.507504130565973e-14
2		1.047128548050899e+00,0.000000000000000e+00
	2.145100350735962e-02,7.682376366326975e-10
	1.000000000000000e+00,0.000000000000000e+00
	0.000000000000000e+00,0.000000000000000e+00
	3.288983781217654e-04,8.904295844428120e-14
	3.288983779592398e-04,8.154451647618529e-14
	-2.145100350735961e-06,-7.682376366327001e-14
	2.052292991384265e-04,2.843935470753373e-12
	-1.754124683883698e-04,-4.406540133977183e-14
	-2.767173039932079e-05,-2.723046305750331e-12
	2.145100350735962e-06,7.682376366326975e-14
	-2.052292991384097e-04,-2.843935470753372e-12
	2.145100350735962e-06,7.682376366326975e-14
3		1.071519305237606e+00,0.000000000000000e+00
	2.145100350735962e-02,7.861321899725676e-10
	1.000000000000000e+00,0.000000000000000e+00
	0.000000000000000e+00,0.000000000000000e+00
	3.288983781217654e-04,9.111703538797933e-14
	3.288983779592398e-04,8.344393226900288e-14
	-2.145100350735961e-06,-7.861321899725717e-14
	2.052292991384265e-04,2.910179237720593e-12
	-1.754124683883698e-04,-4.509181639302744e-14
	-2.767173039932079e-05,-2.786474202330309e-12
	2.145100350735962e-06,7.861321899725676e-14
	-2.052292991384097e-04,-2.910179237720593e-12
	2.145100350735962e-06,7.861321899725676e-14
4		1.096478196143185e+00,0.000000000000000e+00
	2.145100350735962e-02,8.044435610052509e-10
	1.000000000000000e+00,0.000000000000000e+00
	0.000000000000000e+00,0.000000000000000e+00
	3.288983781217654e-04,9.323942378991670e-14
	3.288983779592398e-04,8.538759113922051e-14
	-2.145100350735961e-06,-8.044435610052517e-14
	2.052292991384265e-04,2.977966020240430e-12
	-1.754124683883698e-04,-4.614213972419540e-14
	-2.767173039932079e-05,-2.851379524415710e-12
	2.145100350735962e-06,8.044435610052509e-14
	-2.052292991384097e-04,-2.977966020240430e-12
	2.145100350735962e-06,8.044435610052509e-14
5		1.122018454301963e+00,0.000000000000000e+00
	2.145100350735962e-02,8.231814586620487e-10
	1.000000000000000e+00,0.000000000000000e+00
	0.000000000000000e+00,0.000000000000000e+00
	3.288983781217654e-04,9.541124896851721e-14
	3.288983779592398e-04,8.737652364049858e-14
	-2.145100350735961e-06,-8.231814586620501e-14
	2.052292991384265e-04,3.047331759762239e-12
	-1.754124683883698e-04,-4.721692822860858e-14
	-2.767173039932079e-05,-2.917796685667425e-12
	2.145100350735962e-06,8.231814586620488e-14
	-2.052292991384097e-04,-3.047331759762238e-12
	2.145100350735962e-06,8.231814586620488e-14
6		1.148153621496882e+00,0.000000000000000e+00
	2.145100350735962e-02,8.423558180243236e-10
	1.000000000000000e+00,0.000000000000000e+00
	0.000000000000000e+00,0.000000000000000e+00
	3.288983781217654e-04,9.763366245423799e-14
	3.288983779592398e-04,8.941178433117585e-14
	-2.145100350735961e-06,-8.423558180243278e-14
	2.052292991384265e-04,3.118313234919278e-12
	-1.754124683883698e-04,-4.831675177335848e-14
	-2.767173039932079e-05,-2.985760901343486e-12
	2.145100350735962e-06,8.423558180243236e-14
	-2.052292991384097e-04,-3.118313234919277e-12
	2.145100350735962e-06,8.423558180243236e-14
7		1.174897554939529e+00,0.000000000000000e+00
	2.145100350735962e-02,8.619768055912123e-10
	1.000000000000000e+00,0.000000000000000e+00
	0.000000000000000e+00,0.000000000000000e+00
	3.288983781217654e-04,9.990784260012631e-14
	3.288983779592398e-04,9.149445233341036e-14
	-2.145100350735961e-06,-8.619768055912148e-14
	2.052292991384265e-04,3.190948081029225e-12
	-1.754124683883698e-04,-4.944219349944642e-14
	-2.767173039932079e-05,-3.055308206970657e-12
	2.145100350735962e-06,8.619768055912124e-14
	-2.052292991384097e-04,-3.190948081029225e-12
	2.145100350735962e-06,8.619768055912124e-14
8		1.202264434617413e+00,0.000000000000000e+00
	2.145100350735962e-02,8.820548246700377e-10
	1.000000000000000e+00,0.000000000000000e+00
	0.000000000000000e+00,0.000000000000000e+00
	3.288983781217654e-04,1.022349952065979e-13
	3.288983779592398e-04,9.362563190534434e-14
	-2.145100350735961e-06,-8.820548246700412e-14
	2.052292991384265e-04,3.265274810048927e-12
	-1.754124683883698e-04,-5.059385013097260e-14
	-2.767173039932079e-05,-3.126475477450950e-12
	2.145100350735962e-06,8.820548246700378e-14
	-2.052292991384097e-04,-3.265274810048925e-12
	2.145100350735962e-06,8.820548246700378e-14
9		1.230268770812381e+00,0.000000000000000e+00
	2.145100350735962e-02,9.026005208922790e-10
	1.000000000000000e+00,0.000000000000000e+00
	0.000000000000000e+00,0.000000000000000e+00
	3.288983781217654e-04,1.046163541607681e-13
	3.288983779592398e-04,9.580645302659624e-14
	-2.145100350735961e-06,-9.026005208922769e-14
	2.052292991384265e-04,3.341332830993936e-12
	-1.754124683883698e-04,-5.177233229152696e-14
	-2.767173039932079e-05,-3.199300446613182e-12
	2.145100350735962e-06,9.026005208922791e-14
	-2.052292991384097e-04,-3.341332830993936e-12
	2.145100350735962e-06,9.026005208922791e-14
10		1.258925411794167e+00,0.000000000000000e+00
	2.145100350735962e-02,9.236247878580274e-10
	1.000000000000000e+00,0.000000000000000e+00
	0.000000000000000e+00,0.000000000000000e+00
	3.288983781217654e-04,1.070531820906755e-13
	3.288983779592398e-04,9.803807199739119e-14
	-2.145100350735961e-06,-9.236247878580295e-14
	2.052292991384265e-04,3.419162470833709e-12
	-1.754124683883698e-04,-5.297826482795014e-14
	-2.767173039932079e-05,-3.273821727219956e-12
	2.145100350735962e-06,9.236247878580274e-14
	-2.052292991384097e-04,-3.419162470833709e-12
	2.145100350735962e-06,9.236247878580274e-14
11		1.288249551693134e+00,0.000000000000000e+00
	2.145100350735962e-02,9.451387729119179e-10
	1.000000000000000e+00,0.000000000000000e+00
	0.000000000000000e+00,0.000000000000000e+00
	3.288983781217654e-04,1.095467710347438e-13
	3.288983779592398e-04,1.003216720516464e-13
	-2.145100350735961e-06,-9.451387729119173e-14
	2.052292991384265e-04,3.498804995873484e-12
	-1.754124683883698e-04,-5.421228714163535e-14
	-2.767173039932079e-05,-3.350078831440656e-12
	2.145100350735962e-06,9.451387729119179e-14
	-2.052292991384097e-04,-3.498804995873483e-12
	2.145100350735962e-06,9.451387729119179e-14
12		1.318256738556407e+00,0.000000000000000e+00
	2.145100350735962e-02,9.671538830535962e-10
	1.000000000000000e+00,0.000000000000000e+00
	0.000000000000000e+00,0.000000000000000e+00
	3.288983781217654e-04,1.120984431268376e-13
	3.288983779592398e-04,1.026584639843378e-13
	-2.145100350735961e-06,-9.671538830536027e-14
	2.052292991384265e-04,3.580302633634228e-12
	-1.754124683883698e-04,-5.547505352754748e-14
	-2.767173039932079e-05,-3.428112191801321e-12
	2.145100350735962e-06,9.671538830535963e-14
	-2.052292991384097e-04,-3.580302633634228e-12
	2.145100350735962e-06,9.671538830535963e-14
13		1.348962882591653e+00,0.000000000000000e+00
	2.145100350735962e-02,9.896817909858652e-10
	1.000000000000000e+00,0.000000000000000e+00
	0.000000000000000e+00,0.000000000000000e+00
	3.288983781217654e-04,1.147095512972756e-13
	3.288983779592398e-04,1.050496867934790e-13
	-2.145100350735961e-06,-9.896817909858632e-14
	2.052292991384265e-04,3.663698595242233e-12
	-1.754124683883698e-04,-5.676723352113905e-14
	-2.767173039932079e-05,-3.507963182622508e-12
	2.145100350735962e-06,9.896817909858653e-14
	-2.052292991384097e-04,-3.663698595242233e-12
	2.145100350735962e-06,9.896817909858653e-14
14		1.380384264602885e+00,0.000000000000000e+00
	2.145100350735962e-02,1.012734441303702e-09
	1.000000000000000e+00,0.000000000000000e+00
	0.000000000000000e+00,0.000000000000000e+00
	3.288983781217654e-04,1.173814799901718e-13
	3.288983779592398e-04,1.074966083370552e-13
	-2.145100350735961e-06,-1.012734441303704e-13
	2.052292991384265e-04,3.749037098340222e-12
	-1.754124683883698e-04,-5.808951225334671e-14
	-2.767173039932079e-05,-3.589674141956505e-12
	2.145100350735962e-06,1.012734441303702e-13
	-2.052292991384097e-04,-3.749037098340221e-12
	2.145100350735962e-06,1.012734441303702e-13
15		1.412537544622754e+00,0.000000000000000e+00
	2.145100350735962e-02,1.036324056827443e-09
	1.000000000000000e+00,0.000000000000000e+00
	0.000000000000000e+00,0.000000000000000e+00
	3.288983781217654e-04,1.201156458974864e-13
	3.288983779592398e-04,1.100005260052575e-13
	-2.145100350735961e-06,-1.036324056827443e-13
	2.052292991384265e-04,3.836363390532121e-12
	-1.754124683883698e-04,-5.944259081385670e-14
	-2.767173039932079e-05,-3.673288394035520e-12
	2.145100350735962e-06,1.036324056827443e-13
	-2.052292991384097e-04,-3.836363390532121e-12
	2.145100350735962e-06,1.036324056827443e-13
16		1.445439770745927e+00,0.000000000000000e+00
	2.145100350735962e-02,1.060463145083484e-09
	1.000000000000000e+00,0.000000000000000e+00
	0.000000000000000e+00,0.000000000000000e+00
	3.288983781217654e-04,1.229134987101743e-13
	3.288983779592398e-04,1.125627674083768e-13
	-2.145100350735961e-06,-1.060463145083491e-13
	2.052292991384265e-04,3.925723773373952e-12
	-1.754124683883698e-04,-6.082718662283188e-14
	-2.767173039932079e-05,-3.758850272242772e-12
	2.145100350735962e-06,1.060463145083484e-13
	-2.052292991384097e-04,-3.925723773373952e-12
	2.145100350735962e-06,1.060463145083484e-13
17		1.479108388168207e+00,0.000000000000000e+00
	2.145100350735962e-02,1.085164504935938e-09
	1.000000000000000e+00,0.000000000000000e+00
	0.000000000000000e+00,0.000000000000000e+00
	3.288983781217654e-04,1.257765218868309e-13
	3.288983779592398e-04,1.151846910807205e-13
	-2.145100350735961e-06,-1.085164504935938e-13
	2.052292991384265e-04,4.017165626923525e-12
	-1.754124683883698e-04,-6.224403381129749e-14
	-2.767173039932079e-05,-3.846405142618634e-12
	2.145100350735962e-06,1.085164504935938e-13
	-2.052292991384097e-04,-4.017165626923524e-12
	2.145100350735962e-06,1.085164504935938e-13
18		1.513561248436208e+00,0.000000000000000e+00
	2.145100350735962e-02,1.110441233372759e-09
	1.000000000000000e+00,0.000000000000000e+00
	0.000000000000000e+00,0.000000000000000e+00
	3.288983781217654e-04,1.287062334402409e-13
	3.288983779592398e-04,1.178676872009247e-13
	-2.145100350735961e-06,-1.110441233372764e-13
	2.052292991384265e-04,4.110737434861966e-12
	-1.754124683883698e-04,-6.369388361038704e-14
	-2.767173039932079e-05,-3.935999427914303e-12
	2.145100350735962e-06,1.110441233372759e-13
	-2.052292991384097e-04,-4.110737434861966e-12
	2.145100350735962e-06,1.110441233372759e-13
19		1.548816618912481e+00,0.000000000000000e+00
	2.145100350735962e-02,1.136306732449942e-09
	1.000000000000000e+00,0.000000000000000e+00
	0.000000000000000e+00,0.000000000000000e+00
	3.288983781217654e-04,1.317041867422493e-13
	3.288983779592398e-04,1.206131783290462e-13
	-2.145100350735961e-06,-1.136306732449947e-13
	2.052292991384265e-04,4.206488810200413e-12
	-1.754124683883698e-04,-6.517750474965502e-14
	-2.767173039932079e-05,-4.027680632205763e-12
	2.145100350735962e-06,1.136306732449942e-13
	-2.052292991384097e-04,-4.206488810200411e-12
	2.145100350735962e-06,1.136306732449942e-13
20		1.584893192461113e+00,0.000000000000000e+00
	2.145100350735962e-02,1.162774716397467e-09
	1.000000000000000e+00,0.000000000000000e+00
	0.000000000000000e+00,0.000000000000000e+00
	3.288983781217654e-04,1.347719713473796e-13
	3.288983779592398e-04,1.234226201608219e-13
	-2.145100350735955e-06,-1.162774716397465e-13
	2.052292991384265e-04,4.304470521585489e-12
	-1.754124683883698e-04,-6.669568386466757e-14
	-2.767173039932080e-05,-4.121497366081075e-12
	2.145100350735962e-06,1.162774716397467e-13
	-2.052292991384097e-04,-4.304470521585488e-12
	2.145100350735962e-06,1.162774716397467e-13
21		1.621810097358929e+00,0.000000000000000e+00
	2.145100350735962e-02,1.189859218890770e-09
	1.000000000000000e+00,0.000000000000000e+00
	0.000000000000000e+00,0.000000000000000e+00
	3.288983781217654e-04,1.379112138356361e-13
	3.288983779592398e-04,1.262975022994984e-13
	-2.145100350735955e-06,-1.189859218890769e-13
	2.052292991384265e-04,4.404734520217513e-12
	-1.754124683883698e-04,-6.824922591408689e-14
	-2.767173039932080e-05,-4.217499372414349e-12
	2.145100350735962e-06,1.189859218890770e-13
	-2.052292991384097e-04,-4.404734520217512e-12
	2.145100350735962e-06,1.189859218890770e-13
22		1.659586907437560e+00,0.000000000000000e+00
	2.145100350735962e-02,1.217574600491576e-09
	1.000000000000000e+00,0.000000000000000e+00
	0.000000000000000e+00,0.000000000000000e+00
	3.288983781217654e-04,1.411235786749390e-13
	3.288983779592398e-04,1.292393490456391e-13
	-2.145100350735955e-06,-1.217574600491578e-13
	2.052292991384265e-04,4.507333967395711e-12
	-1.754124683883698e-04,-6.983895460647116e-14
	-2.767173039932080e-05,-4.315737552740082e-12
	2.145100350735962e-06,1.217574600491577e-13
	-2.052292991384097e-04,-4.507333967395710e-12
	2.145100350735962e-06,1.217574600491577e-13
23		1.698243652461743e+00,0.000000000000000e+00
	2.145100350735962e-02,1.245935556262069e-09
	1.000000000000000e+00,0.000000000000000e+00
	0.000000000000000e+00,0.000000000000000e+00
	3.288983781217654e-04,1.444107691036468e-13
	3.288983779592398e-04,1.322497202053289e-13
	-2.145100350735961e-06,-1.245935556262071e-13
	2.052292991384265e-04,4.612323262705040e-12
	-1.754124683883698e-04,-7.146571283701562e-14
	-2.767173039932080e-05,-4.416263994241818e-12
	2.145100350735962e-06,1.245935556262069e-13
	-2.052292991384097e-04,-4.612323262705039e-12
	2.145100350735962e-06,1.245935556262069e-13
24		1.737800828749374e+00,0.000000000000000e+00
	2.145100350735962e-02,1.274957123556398e-09
	1.000000000000000e+00,0.000000000000000e+00
	0.000000000000000e+00,0.000000000000000e+00
	3.288983781217654e-04,1.477745280336358e-13
	3.288983779592398e-04,1.353302119172035e-13
	-2.145100350735961e-06,-1.274957123556404e-13
	2.052292991384265e-04,4.719758072859571e-12
	-1.754124683883698e-04,-7.313036313446681e-14
	-2.767173039932080e-05,-4.519131997369464e-12
	2.145100350735962e-06,1.274957123556398e-13
	-2.052292991384097e-04,-4.719758072859570e-12
	2.145100350735962e-06,1.274957123556398e-13
25		1.778279410038922e+00,0.000000000000000e+00
	2.145100350735962e-02,1.304654689993690e-09
	1.000000000000000e+00,0.000000000000000e+00
	0.000000000000000e+00,0.000000000000000e+00
	3.288983781217654e-04,1.512166389744154e-13
	3.288983779592398e-04,1.384824574987437e-13
	-2.145100350735961e-06,-1.304654689993695e-13
	2.052292991384265e-04,4.829695361217717e-12
	-1.754124683883698e-04,-7.483378811844670e-14
	-2.767173039932080e-05,-4.624396104099900e-12
	2.145100350735962e-06,1.304654689993690e-13
	-2.052292991384097e-04,-4.829695361217715e-12
	2.145100350735962e-06,1.304654689993690e-13
26		1.819700858609982e+00,0.000000000000000e+00
	2.145100350735962e-02,1.335044001616762e-09
	1.000000000000000e+00,0.000000000000000e+00
	0.000000000000000e+00,0.000000000000000e+00
	3.288983781217654e-04,1.547389269787680e-13
	3.288983779592398e-04,1.417081283122819e-13
	-2.145100350735961e-06,-1.335044001616766e-13
	2.052292991384265e-04,4.942193417984953e-12
	-1.754124683883698e-04,-7.657689096742928e-14
	-2.767173039932080e-05,-4.732112126855847e-12
	2.145100350735962e-06,1.335044001616762e-13
	-2.052292991384097e-04,-4.942193417984953e-12
	2.145100350735962e-06,1.335044001616762e-13
27		1.862087136662866e+00,0.000000000000000e+00
	2.145100350735962e-02,1.366141171240889e-09
	1.000000000000000e+00,0.000000000000000e+00
	0.000000000000000e+00,0.000000000000000e+00
	3.288983781217654e-04,1.583432596104166e-13
	3.288983779592398e-04,1.450089346511799e-13
	-2.145100350735961e-06,-1.366141171240900e-13
	2.052292991384265e-04,5.057311891120072e-12
	-1.754124683883698e-04,-7.836059589761774e-14
	-2.767173039932080e-05,-4.842337178098364e-12
	2.145100350735962e-06,1.366141171240889e-13
	-2.052292991384097e-04,-5.057311891120069e-12
	2.145100350735962e-06,1.366141171240889e-13
28		1.905460717963246e+00,0.000000000000000e+00
	2.145100350735962e-02,1.397962686997023e-09
	1.000000000000000e+00,0.000000000000000e+00
	0.000000000000000e+00,0.000000000000000e+00
	3.288983781217654e-04,1.620315479342315e-13
	3.288983779592398e-04,1.483866266466502e-13
	-2.145100350735961e-06,-1.397962686997031e-13
	2.052292991384265e-04,5.175111817961296e-12
	-1.754124683883698e-04,-8.018584865297624e-14
	-2.767173039932080e-05,-4.955129700608617e-12
	2.145100350735962e-06,1.397962686997023e-13
	-2.052292991384097e-04,-5.175111817961296e-12
	2.145100350735962e-06,1.397962686997023e-13
29		1.949844599758044e+00,0.000000000000000e+00
	2.145100350735962e-02,1.430525421074027e-09
	1.000000000000000e+00,0.000000000000000e+00
	0.000000000000000e+00,0.000000000000000e+00
	3.288983781217654e-04,1.658057475295021e-13
	3.288983779592398e-04,1.518429951956978e-13
	-2.145100350735961e-06,-1.430525421074022e-13
	2.052292991384265e-04,5.295655657589108e-12
	-1.754124683883698e-04,-8.205361700667572e-14
	-2.767173039932080e-05,-5.070549498475030e-12
	2.145100350735962e-06,1.430525421074027e-13
	-2.052292991384097e-04,-5.295655657589108e-12
	2.145100350735962e-06,1.430525421074027e-13
30		1.995262314968878e+00,0.000000000000000e+00
	2.145100350735962e-02,1.463846638664527e-09
	1.000000000000000e+00,0.000000000000000e+00
	0.000000000000000e+00,0.000000000000000e+00
	3.288983781217654e-04,1.696678595268115e-13
	3.288983779592398e-04,1.553798729106778e-13
	-2.145100350735961e-06,-1.463846638664530e-13
	2.052292991384265e-04,5.419007323942863e-12
	-1.754124683883698e-04,-8.396489127422019e-14
	-2.767173039932080e-05,-5.188657768802189e-12
	2.145100350735962e-06,1.463846638664527e-13
	-2.052292991384097e-04,-5.419007323942863e-12
	2.145100350735962e-06,1.463846638664527e-13
31		2.041737944669527e+00,0.000000000000000e+00
	2.145100350735962e-02,1.497944007119147e-09
	1.000000000000000e+00,0.000000000000000e+00
	0.000000000000000e+00,0.000000000000000e+00
	3.288983781217654e-04,1.736199316690616e-13
	3.288983779592398e-04,1.589991350909707e-13
	-2.145100350735961e-06,-1.497944007119150e-13
	2.052292991384265e-04,5.545232219708813e-12
	-1.754124683883698e-04,-8.592068483852493e-14
	-2.767173039932080e-05,-5.309517134158374e-12
	2.145100350735962e-06,1.497944007119148e-13
	-2.052292991384097e-04,-5.545232219708812e-12
	2.145100350735962e-06,1.497944007119148e-13
32		2.089296130854037e+00,0.000000000000000e+00
	2.145100350735962e-02,1.532835605313976e-09
	1.000000000000000e+00,0.000000000000000e+00
	0.000000000000000e+00,0.000000000000000e+00
	3.288983781217654e-04,1.776640593972141e-13
	3.288983779592398e-04,1.627027007172912e-13
	-2.145100350735961e-06,-1.532835605313982e-13
	2.052292991384265e-04,5.674397270997481e-12
	-1.754124683883698e-04,-8.792203468722580e-14
	-2.767173039932080e-05,-5.433191675778857e-12
	2.145100350735962e-06,1.532835605313976e-13
	-2.052292991384097e-04,-5.674397270997480e-12
	2.145100350735962e-06,1.532835605313976e-13
33		2.137962089502230e+00,0.000000000000000e+00
	2.145100350735962e-02,1.568539933236219e-09
	1.000000000000000e+00,0.000000000000000e+00
	0.000000000000000e+00,0.000000000000000e+00
	3.288983781217654e-04,1.818023869613208e-13
	3.288983779592398e-04,1.664925334691570e-13
	-2.145100350735961e-06,-1.568539933236225e-13
	2.052292991384265e-04,5.806570962828756e-12
	-1.754124683883698e-04,-8.997000196250357e-14
	-2.767173039932080e-05,-5.559746967542631e-12
	2.145100350735962e-06,1.568539933236219e-13
	-2.052292991384097e-04,-5.806570962828756e-12
	2.145100350735962e-06,1.568539933236219e-13
34		2.187761623949550e+00,0.000000000000000e+00
	2.145100350735962e-02,1.605075921793145e-09
	1.000000000000000e+00,0.000000000000000e+00
	0.000000000000000e+00,0.000000000000000e+00
	3.288983781217654e-04,1.860371085574335e-13
	3.288983779592398e-04,1.703706427660572e-13
	-2.145100350735961e-06,-1.605075921793146e-13
	2.052292991384265e-04,5.941823375443577e-12
	-1.754124683883698e-04,-9.206567252371559e-14
	-2.767173039932080e-05,-5.689250110740548e-12
	2.145100350735962e-06,1.605075921793145e-13
	-2.052292991384097e-04,-5.941823375443577e-12
	2.145100350735962e-06,1.605075921793145e-13
35		2.238721138568337e+00,0.000000000000000e+00
	2.145100350735962e-02,1.642462942849497e-09
	1.000000000000000e+00,0.000000000000000e+00
	0.000000000000000e+00,0.000000000000000e+00
	3.288983781217654e-04,1.903704694909956e-13
	3.288983779592398e-04,1.743390848328741e-13
	-2.145100350735961e-06,-1.642462942849503e-13
	2.052292991384265e-04,6.080226221461389e-12
	-1.754124683883698e-04,-9.421015752313292e-14
	-2.767173039932080e-05,-5.821769769653306e-12
	2.145100350735962e-06,1.642462942849497e-13
	-2.052292991384097e-04,-6.080226221461388e-12
	2.145100350735962e-06,1.642462942849497e-13
36		2.290867652767770e+00,0.000000000000000e+00
	2.145100350735962e-02,1.680720819498715e-09
	1.000000000000000e+00,0.000000000000000e+00
	0.000000000000000e+00,0.000000000000000e+00
	3.288983781217654e-04,1.948047673673330e-13
	3.288983779592398e-04,1.783999637901200e-13
	-2.145100350735961e-06,-1.680720819498722e-13
	2.052292991384265e-04,6.221852883903129e-12
	-1.754124683883698e-04,-9.640459399508790e-14
	-2.767173039932080e-05,-5.957376207958169e-12
	2.145100350735962e-06,1.680720819498715e-13
	-2.052292991384097e-04,-6.221852883903127e-12
	2.145100350735962e-06,1.680720819498715e-13
37		2.344228815319919e+00,0.000000000000000e+00
	2.145100350735962e-02,1.719869836573401e-09
	1.000000000000000e+00,0.000000000000000e+00
	0.000000000000000e+00,0.000000000000000e+00
	3.288983781217654e-04,1.993423533098744e-13
	3.288983779592398e-04,1.825554327695701e-13
	-2.145100350735961e-06,-1.719869836573400e-13
	2.052292991384265e-04,6.366778455099871e-12
	-1.754124683883698e-04,-9.865014545884473e-14
	-2.767173039932080e-05,-6.096141325983686e-12
	2.145100350735962e-06,1.719869836573401e-13
	-2.052292991384097e-04,-6.366778455099870e-12
	2.145100350735962e-06,1.719869836573401e-13
38		2.398832919019488e+00,0.000000000000000e+00
	2.145100350735962e-02,1.759930751400607e-09
	1.000000000000000e+00,0.000000000000000e+00
	0.000000000000000e+00,0.000000000000000e+00
	3.288983781217654e-04,2.039856332067486e-13
	3.288983779592398e-04,1.868076950558814e-13
	-2.145100350735961e-06,-1.759930751400606e-13
	2.052292991384265e-04,6.515079776507784e-12
	-1.754124683883698e-04,-1.009480025355128e-13
	-2.767173039932080e-05,-6.238138698832211e-12
	2.145100350735962e-06,1.759930751400608e-13
	-2.052292991384097e-04,-6.515079776507783e-12
	2.145100350735962e-06,1.759930751400608e-13
39		2.454708915685027e+00,0.000000000000000e+00
	2.145100350735962e-02,1.800924804807644e-09
	1.000000000000000e+00,0.000000000000000e+00
	0.000000000000000e+00,0.000000000000000e+00
	3.288983781217654e-04,2.087370689864181e-13
	3.288983779592398e-04,1.911590052548035e-13
	-2.145100350735961e-06,-1.800924804807644e-13
	2.052292991384265e-04,6.666835479450477e-12
	-1.754124683883698e-04,-1.032993835793301e-13
	-2.767173039932080e-05,-6.383443615390382e-12
	2.145100350735962e-06,1.800924804807644e-13
	-2.052292991384097e-04,-6.666835479450477e-12
	2.145100350735962e-06,1.800924804807644e-13
40		2.511886431509577e+00,0.000000000000000e+00
	2.145100350735962e-02,1.842873732384246e-09
	1.000000000000000e+00,0.000000000000000e+00
	0.000000000000000e+00,0.000000000000000e+00
	3.288983781217654e-04,2.135991799230259e-13
	3.288983779592398e-04,1.956116704886002e-13
	-2.145100350735961e-06,-1.842873732384251e-13
	2.052292991384265e-04,6.822126026810374e-12
	-1.754124683883698e-04,-1.057055353236501e-13
	-2.767173039932080e-05,-6.532133118248299e-12
	2.145100350735962e-06,1.842873732384246e-13
	-2.052292991384097e-04,-6.822126026810375e-12
	2.145100350735962e-06,1.842873732384246e-13
41		2.570395782768860e+00,0.000000000000000e+00
	2.145100350735962e-02,1.885799776007077e-09
	1.000000000000000e+00,0.000000000000000e+00
	0.000000000000000e+00,0.000000000000000e+00
	3.288983781217654e-04,2.185745439721485e-13
	3.288983779592398e-04,2.001680516193166e-13
	-2.145100350735961e-06,-1.885799776007075e-13
	2.052292991384265e-04,6.981033755691198e-12
	-1.754124683883698e-04,-1.081677335419768e-13
	-2.767173039932080e-05,-6.684286044548514e-12
	2.145100350735962e-06,1.885799776007077e-13
	-2.052292991384097e-04,-6.981033755691198e-12
	2.145100350735962e-06,1.885799776007077e-13
42		2.630267991895378e+00,0.000000000000000e+00
	2.145100350735962e-02,1.929725695632658e-09
	1.000000000000000e+00,0.000000000000000e+00
	0.000000000000000e+00,0.000000000000000e+00
	3.288983781217654e-04,2.236657991376610e-13
	3.288983779592398e-04,2.048305645005390e-13
	-2.145100350735961e-06,-1.929725695632658e-13
	2.052292991384265e-04,7.143642921074199e-12
	-1.754124683883698e-04,-1.106872837243968e-13
	-2.767173039932080e-05,-6.839983067786536e-12
	2.145100350735962e-06,1.929725695632658e-13
	-2.052292991384097e-04,-7.143642921074197e-12
	2.145100350735962e-06,1.929725695632658e-13
43		2.691534803926912e+00,0.000000000000000e+00
	2.145100350735962e-02,1.974674781365003e-09
	1.000000000000000e+00,0.000000000000000e+00
	0.000000000000000e+00,0.000000000000000e+00
	3.288983781217654e-04,2.288756448704432e-13
	3.288983779592398e-04,2.096016812583125e-13
	-2.145100350735961e-06,-1.974674781365002e-13
	2.052292991384265e-04,7.310039740491246e-12
	-1.754124683883698e-04,-1.132655217697668e-13
	-2.767173039932080e-05,-6.999306740584978e-12
	2.145100350735962e-06,1.974674781365003e-13
	-2.052292991384097e-04,-7.310039740491243e-12
	2.145100350735962e-06,1.974674781365003e-13
44		2.754228703338163e+00,0.000000000000000e+00
	2.145100350735962e-02,2.020670865804337e-09
	1.000000000000000e+00,0.000000000000000e+00
	0.000000000000000e+00,0.000000000000000e+00
	3.288983781217654e-04,2.342068434996631e-13
	3.288983779592398e-04,2.144839316018955e-13
	-2.145100350735961e-06,-2.020670865804350e-13
	2.052292991384265e-04,7.480312439738513e-12
	-1.754124683883698e-04,-1.159038146940256e-13
	-2.767173039932080e-05,-7.162341538464052e-12
	2.145100350735963e-06,2.020670865804337e-13
	-2.052292991384097e-04,-7.480312439738512e-12
	2.145100350735963e-06,2.020670865804337e-13
45		2.818382931264450e+00,0.000000000000000e+00
	2.145100350735962e-02,2.067738336683462e-09
	1.000000000000000e+00,0.000000000000000e+00
	0.000000000000000e+00,0.000000000000000e+00
	3.288983781217654e-04,2.396622216974006e-13
	3.288983779592398e-04,2.194799041650442e-13
	-2.145100350735961e-06,-2.067738336683461e-13
	2.052292991384265e-04,7.654551299654970e-12
	-1.754124683883698e-04,-1.186035613550035e-13
	-2.767173039932080e-05,-7.329173904631620e-12
	2.145100350735963e-06,2.067738336683462e-13
	-2.052292991384097e-04,-7.654551299654968e-12
	2.145100350735963e-06,2.067738336683462e-13
46		2.884031503126602e+00,0.000000000000000e+00
	2.145100350735962e-02,2.115902149798449e-09
	1.000000000000000e+00,0.000000000000000e+00
	0.000000000000000e+00,0.000000000000000e+00
	3.288983781217654e-04,2.452446719773865e-13
	3.288983779592398e-04,2.245922478785412e-13
	-2.145100350735961e-06,-2.115902149798455e-13
	2.052292991384265e-04,7.832848703990468e-12
	-1.754124683883698e-04,-1.213661931941155e-13
	-2.767173039932080e-05,-7.499892295816507e-12
	2.145100350735963e-06,2.115902149798449e-13
	-2.052292991384097e-04,-7.832848703990468e-12
	2.145100350735963e-06,2.115902149798449e-13
47		2.951209226666381e+00,0.000000000000000e+00
	2.145100350735962e-02,2.165187842240535e-09
	1.000000000000000e+00,0.000000000000000e+00
	0.000000000000000e+00,0.000000000000000e+00
	3.288983781217654e-04,2.509571542286518e-13
	3.288983779592398e-04,2.298236733746933e-13
	-2.145100350735968e-06,-2.165187842240539e-13
	2.052292991384265e-04,8.015299188388833e-12
	-1.754124683883698e-04,-1.241931749953305e-13
	-2.767173039932080e-05,-7.674587229169448e-12
	2.145100350735963e-06,2.165187842240535e-13
	-2.052292991384097e-04,-8.015299188388833e-12
	2.145100350735963e-06,2.165187842240535e-13
48		3.019951720402012e+00,0.000000000000000e+00
	2.145100350735962e-02,2.215621545936227e-09
	1.000000000000000e+00,0.000000000000000e+00
	0.000000000000000e+00,0.000000000000000e+00
	3.288983781217654e-04,2.568026972848999e-13
	3.288983779592398e-04,2.351769544245446e-13
	-2.145100350735968e-06,-2.215621545936229e-13
	2.052292991384265e-04,8.201999490511909e-12
	-1.754124683883698e-04,-1.270860056618191e-13
	-2.767173039932080e-05,-7.853351330256468e-12
	2.145100350735963e-06,2.215621545936227e-13
	-2.052292991384097e-04,-8.201999490511908e-12
	2.145100350735963e-06,2.215621545936227e-13
49		3.090295432513586e+00,0.000000000000000e+00
	2.145100350735962e-02,2.267230001502792e-09
	1.000000000000000e+00,0.000000000000000e+00
	0.000000000000000e+00,0.000000000000000e+00