Title: * Amplificador CMOS – W=2.1413204510420747e-05 L=7.357428946307336e-07 Vbias=1.4068269482542626
Date: Wed Jul 30 16:07:36 2025
Plotname: Operating Point
Flags: real
No. Variables: 12
No. Points:            1
Offset:    0.0000000000000000e+00
Command: Linear Technology Corporation LTspice
Variables:
	0	V(out)	voltage
	1	V(in)	voltage
	2	V(bias)	voltage
	3	V(vdd)	voltage
	4	Id(M1)	device_current
	5	Ig(M1)	device_current
	6	Ib(M1)	device_current
	7	Is(M1)	device_current
	8	I(Rload)	device_current
	9	I(Vbias)	device_current
	10	I(Vin)	device_current
	11	I(Vdd)	device_current
Values:
0		1.799999977968270e+00
	0.000000000000000e+00
	1.406826948254263e+00
	1.800000000000000e+00
	2.203173007682277e-12
	0.000000000000000e+00
	-3.226826926222533e-12
	1.023653918540256e-12
	-2.203173021797511e-12
	-1.023653918540256e-12
	0.000000000000000e+00
	-2.203173028129252e-12
