Title: * Amplificador CMOS – W=4.79332863309978e-05 L=8.947458022210011e-07 Vbias=0.9019263956383752
Date: Wed Jul 30 16:06:04 2025
Plotname: Operating Point
Flags: real
No. Variables: 12
No. Points:            1
Offset:    0.0000000000000000e+00
Command: Linear Technology Corporation LTspice
Variables:
	0	V(out)	voltage
	1	V(in)	voltage
	2	V(bias)	voltage
	3	V(vdd)	voltage
	4	Id(M1)	device_current
	5	Ig(M1)	device_current
	6	Ib(M1)	device_current
	7	Is(M1)	device_current
	8	I(Rload)	device_current
	9	I(Vbias)	device_current
	10	I(Vin)	device_current
	11	I(Vdd)	device_current
Values:
0		1.799999972919264e+00
	0.000000000000000e+00
	9.019263956383752e-01
	1.800000000000000e+00
	2.708073550200154e-12
	0.000000000000000e+00
	-2.721926368557640e-12
	1.385281835748604e-14
	-2.708073565393932e-12
	-1.385281835748624e-14
	0.000000000000000e+00
	-2.708073565740876e-12
