Title: * GA CMOS Amp | W=7.983180118202896e-06 L=5.392852250823345e-07 Vbias=0.7934804674978755
Date: Mon Sep  8 18:45:42 2025
Plotname: AC Analysis
Flags: complex forward log
No. Variables: 11
No. Points:          901
Offset:    0.0000000000000000e+00
Command: Linear Technology Corporation LTspice
Variables:
	0	frequency	frequency
	1	V(out)	voltage
	2	V(g)	voltage
	3	V(vdd)	voltage
	4	Id(M1)	device_current
	5	Ig(M1)	device_current
	6	Ib(M1)	device_current
	7	Is(M1)	device_current
	8	I(Rload)	device_current
	9	I(Vg)	device_current
	10	I(Vdd)	device_current
Values:
0		1.000000000000000e+00,0.000000000000000e+00
	-2.275682143866228e+00,3.156302033559675e-10
	1.000000000000000e+00,0.000000000000000e+00
	0.000000000000000e+00,0.000000000000000e+00
	2.275682143866228e-04,-3.156302033559675e-14
	3.166389576327283e-24,6.346527649958139e-14
	2.275682138390411e-12,-9.827194285058442e-16
	-2.275682166623049e-04,-3.091953673547880e-14
	-2.275682143866228e-04,3.156302033559675e-14
	-3.166389576327283e-24,-6.346527649958139e-14
	-2.275682143866228e-04,3.156302033559675e-14
1		1.023292992280754e+00,0.000000000000000e+00
	-2.275682143866228e+00,3.229821752463108e-10
	1.000000000000000e+00,0.000000000000000e+00
	0.000000000000000e+00,0.000000000000000e+00
	2.275682143866228e-04,-3.229821752463108e-14
	3.315616919623090e-24,6.494357269518207e-14
	2.275682138390411e-12,-1.005609904568185e-15
	-2.275682166623049e-04,-3.163974526598280e-14
	-2.275682143866228e-04,3.229821752463108e-14
	-3.315616919623090e-24,-6.494357269518207e-14
	-2.275682143866228e-04,3.229821752463108e-14
2		1.047128548050899e+00,0.000000000000000e+00
	-2.275682143866228e+00,3.305053965611443e-10
	1.000000000000000e+00,0.000000000000000e+00
	0.000000000000000e+00,0.000000000000000e+00
	2.275682143866228e-04,-3.305053965611444e-14
	3.471877130937922e-24,6.645630283265553e-14
	2.275682138390411e-12,-1.029033568312732e-15
	-2.275682166623049e-04,-3.237672960822836e-14
	-2.275682143866228e-04,3.305053965611443e-14
	-3.471877130937922e-24,-6.645630283265553e-14
	-2.275682143866228e-04,3.305053965611443e-14
3		1.071519305237606e+00,0.000000000000000e+00
	-2.275682143866228e+00,3.382038562119907e-10
	1.000000000000000e+00,0.000000000000000e+00
	0.000000000000000e+00,0.000000000000000e+00
	2.275682143866228e-04,-3.382038562119906e-14
	3.635501659130149e-24,6.800426898154403e-14
	2.275682138390411e-12,-1.053002839276086e-15
	-2.275682166623049e-04,-3.313088052106889e-14
	-2.275682143866228e-04,3.382038562119907e-14
	-3.635501659130149e-24,-6.800426898154403e-14
	-2.275682143866228e-04,3.382038562119907e-14
4		1.096478196143185e+00,0.000000000000000e+00
	-2.275682143866228e+00,3.460816360240578e-10
	1.000000000000000e+00,0.000000000000000e+00
	0.000000000000000e+00,0.000000000000000e+00
	2.275682143866228e-04,-3.460816360240578e-14
	3.806837573761588e-24,6.958829189398945e-14
	2.275682138390411e-12,-1.077530426282949e-15
	-2.275682166623049e-04,-3.390259786530072e-14
	-2.275682143866228e-04,3.460816360240578e-14
	-3.806837573761588e-24,-6.958829189398945e-14
	-2.275682143866228e-04,3.460816360240578e-14
5		1.122018454301963e+00,0.000000000000000e+00
	-2.275682143866228e+00,3.541429129004769e-10
	1.000000000000000e+00,0.000000000000000e+00
	0.000000000000000e+00,0.000000000000000e+00
	2.275682143866228e-04,-3.541429129004769e-14
	3.986248301278581e-24,7.120921143990703e-14
	2.275682138390411e-12,-1.102629334184643e-15
	-2.275682166623049e-04,-3.469229081567469e-14
	-2.275682143866228e-04,3.541429129004770e-14
	-3.986248301278581e-24,-7.120921143990703e-14
	-2.275682143866228e-04,3.541429129004770e-14
6		1.148153621496882e+00,0.000000000000000e+00
	-2.275682143866228e+00,3.623919610369516e-10
	1.000000000000000e+00,0.000000000000000e+00
	0.000000000000000e+00,0.000000000000000e+00
	2.275682143866228e-04,-3.623919610369516e-14
	4.174114395888206e-24,7.286788705229537e-14
	2.275682138390411e-12,-1.128312870754334e-15
	-2.275682166623049e-04,-3.550037807784588e-14
	-2.275682143866228e-04,3.623919610369516e-14
	-4.174114395888206e-24,-7.286788705229537e-14
	-2.275682143866228e-04,3.623919610369516e-14
7		1.174897554939529e+00,0.000000000000000e+00
	-2.275682143866228e+00,3.708331541879925e-10
	1.000000000000000e+00,0.000000000000000e+00
	0.000000000000000e+00,0.000000000000000e+00
	2.275682143866228e-04,-3.708331541879926e-14
	4.370834346764773e-24,7.456519818291935e-14
	2.275682138390411e-12,-1.154594653743099e-15
	-2.275682166623049e-04,-3.632728811037699e-14
	-2.275682143866228e-04,3.708331541879925e-14
	-4.370834346764773e-24,-7.456519818291935e-14
	-2.275682143866228e-04,3.708331541879925e-14
8		1.202264434617413e+00,0.000000000000000e+00
	-2.275682143866228e+00,3.794709679859412e-10
	1.000000000000000e+00,0.000000000000000e+00
	0.000000000000000e+00,0.000000000000000e+00
	2.275682143866228e-04,-3.794709679859412e-14
	4.576825423298799e-24,7.630204476860699e-14
	2.275682138390411e-12,-1.181488618100134e-15
	-2.275682166623049e-04,-3.717345935191274e-14
	-2.275682143866228e-04,3.794709679859411e-14
	-4.576825423298799e-24,-7.630204476860699e-14
	-2.275682143866228e-04,3.794709679859411e-14
9		1.230268770812381e+00,0.000000000000000e+00
	-2.275682143866228e+00,3.883099823140080e-10
	1.000000000000000e+00,0.000000000000000e+00
	0.000000000000000e+00,0.000000000000000e+00
	2.275682143866228e-04,-3.883099823140080e-14
	4.792524560181316e-24,7.807934770840790e-14
	2.275682138390411e-12,-1.209009023361337e-15
	-2.275682166623049e-04,-3.803934045364577e-14
	-2.275682143866228e-04,3.883099823140080e-14
	-4.792524560181316e-24,-7.807934770840790e-14
	-2.275682143866228e-04,3.883099823140080e-14
10		1.258925411794167e+00,0.000000000000000e+00
	-2.275682143866228e+00,3.973548837345880e-10
	1.000000000000000e+00,0.000000000000000e+00
	0.000000000000000e+00,0.000000000000000e+00
	2.275682143866228e-04,-3.973548837345879e-14
	5.018389284200938e-24,7.989804935186618e-14
	2.275682138390411e-12,-1.237170461209864e-15
	-2.275682166623049e-04,-3.892539051719752e-14
	-2.275682143866228e-04,3.973548837345880e-14
	-5.018389284200938e-24,-7.989804935186618e-14
	-2.275682143866228e-04,3.973548837345880e-14
11		1.288249551693134e+00,0.000000000000000e+00
	-2.275682143866228e+00,4.066104679741378e-10
	1.000000000000000e+00,0.000000000000000e+00
	0.000000000000000e+00,0.000000000000000e+00
	2.275682143866228e-04,-4.066104679741377e-14
	5.254898684719522e-24,8.175911399866651e-14
	2.275682138390411e-12,-1.265987863212800e-15
	-2.275682166623049e-04,-3.983207933803994e-14
	-2.275682143866228e-04,4.066104679741378e-14
	-5.254898684719522e-24,-8.175911399866651e-14
	-2.275682143866228e-04,4.066104679741378e-14
12		1.318256738556407e+00,0.000000000000000e+00
	-2.275682143866228e+00,4.160816424659331e-10
	1.000000000000000e+00,0.000000000000000e+00
	0.000000000000000e+00,0.000000000000000e+00
	2.275682143866228e-04,-4.160816424659332e-14
	5.502554429884933e-24,8.366352840991875e-14
	2.275682138390411e-12,-1.295476508738138e-15
	-2.275682166623049e-04,-4.075988765458729e-14
	-2.275682143866228e-04,4.160816424659331e-14
	-5.502554429884933e-24,-8.366352840991875e-14
	-2.275682143866228e-04,4.160816424659331e-14
13		1.348962882591653e+00,0.000000000000000e+00
	-2.275682143866228e+00,4.257734289520556e-10
	1.000000000000000e+00,0.000000000000000e+00
	0.000000000000000e+00,0.000000000000000e+00
	2.275682143866228e-04,-4.257734289520556e-14
	5.761881830736456e-24,8.561230233135164e-14
	2.275682138390411e-12,-1.325652033056073e-15
	-2.275682166623049e-04,-4.170930740309000e-14
	-2.275682143866228e-04,4.257734289520556e-14
	-5.761881830736456e-24,-8.561230233135164e-14
	-2.275682143866228e-04,4.257734289520556e-14
14		1.380384264602885e+00,0.000000000000000e+00
	-2.275682143866228e+00,4.356909661459861e-10
	1.000000000000000e+00,0.000000000000000e+00
	0.000000000000000e+00,0.000000000000000e+00
	2.275682143866228e-04,-4.356909661459861e-14
	6.033430955459925e-24,8.760646902869340e-14
	2.275682138390411e-12,-1.356530435629010e-15
	-2.275682166623049e-04,-4.268084197846578e-14
	-2.275682143866228e-04,4.356909661459861e-14
	-6.033430955459925e-24,-8.760646902869340e-14
	-2.275682143866228e-04,4.356909661459861e-14
15		1.412537544622754e+00,0.000000000000000e+00
	-2.275682143866228e+00,4.458395124572189e-10
	1.000000000000000e+00,0.000000000000000e+00
	0.000000000000000e+00,0.000000000000000e+00
	2.275682143866228e-04,-4.458395124572189e-14
	6.317777796156103e-24,8.964708583552289e-14
	2.275682138390411e-12,-1.388128088594725e-15
	-2.275682166623049e-04,-4.367500650120627e-14
	-2.275682143866228e-04,4.458395124572189e-14
	-6.317777796156103e-24,-8.964708583552289e-14
	-2.275682143866228e-04,4.458395124572189e-14
16		1.445439770745927e+00,0.000000000000000e+00
	-2.275682143866228e+00,4.562244487793400e-10
	1.000000000000000e+00,0.000000000000000e+00
	0.000000000000000e+00,0.000000000000000e+00
	2.275682143866228e-04,-4.562244487793400e-14
	6.615525490597150e-24,9.173523471388179e-14
	2.275682138390411e-12,-1.420461745447051e-15
	-2.275682166623049e-04,-4.469232809050074e-14
	-2.275682143866228e-04,4.562244487793400e-14
	-6.615525490597150e-24,-9.173523471388179e-14
	-2.275682143866228e-04,4.562244487793400e-14
17		1.479108388168207e+00,0.000000000000000e+00
	-2.275682143866228e+00,4.668512813430484e-10
	1.000000000000000e+00,0.000000000000000e+00
	0.000000000000000e+00,0.000000000000000e+00
	2.275682143866228e-04,-4.668512813430484e-14
	6.927305601562707e-24,9.387202282794541e-14
	2.275682138390411e-12,-1.453548549918864e-15
	-2.275682166623049e-04,-4.573334614372171e-14
	-2.275682143866228e-04,4.668512813430484e-14
	-6.927305601562707e-24,-9.387202282794541e-14
	-2.275682143866228e-04,4.668512813430484e-14
18		1.513561248436208e+00,0.000000000000000e+00
	-2.275682143866228e+00,4.777256446356322e-10
	1.000000000000000e+00,0.000000000000000e+00
	0.000000000000000e+00,0.000000000000000e+00
	2.275682143866228e-04,-4.777256446356322e-14
	7.253779456469221e-24,9.605858313105553e-14
	2.275682138390411e-12,-1.487406045071835e-15
	-2.275682166623049e-04,-4.679861262242047e-14
	-2.275682143866228e-04,4.777256446356322e-14
	-7.253779456469221e-24,-9.605858313105553e-14
	-2.275682143866228e-04,4.777256446356322e-14
19		1.548816618912481e+00,0.000000000000000e+00
	-2.275682143866228e+00,4.888533043884483e-10
	1.000000000000000e+00,0.000000000000000e+00
	0.000000000000000e+00,0.000000000000000e+00
	2.275682143866228e-04,-4.888533043884483e-14
	7.595639550134058e-24,9.829607496642738e-14
	2.275682138390411e-12,-1.522052182598031e-15
	-2.275682166623049e-04,-4.788869234498452e-14
	-2.275682143866228e-04,4.888533043884483e-14
	-7.595639550134058e-24,-9.829607496642738e-14
	-2.275682143866228e-04,4.888533043884483e-14
20		1.584893192461113e+00,0.000000000000000e+00
	-2.275682143866228e+00,5.002401606339895e-10
	1.000000000000000e+00,0.000000000000000e+00
	0.000000000000000e+00,0.000000000000000e+00
	2.275682143866228e-04,-5.002401606339895e-14
	7.953611013649862e-24,1.005856846818488e-13
	2.275682138390411e-12,-1.557505332338210e-15
	-2.275682166623049e-04,-4.900416328611165e-14
	-2.275682143866228e-04,5.002401606339895e-14
	-7.953611013649862e-24,-1.005856846818488e-13
	-2.275682143866228e-04,5.002401606339895e-14
21		1.621810097358929e+00,0.000000000000000e+00
	-2.275682143866228e+00,5.118922508341602e-10
	1.000000000000000e+00,0.000000000000000e+00
	0.000000000000000e+00,0.000000000000000e+00
	2.275682143866228e-04,-5.118922508341602e-14
	8.328453152484822e-24,1.029286262586975e-13
	2.275682138390411e-12,-1.593784292021580e-15
	-2.275682166623049e-04,-5.014561688325986e-14
	-2.275682143866228e-04,5.118922508341603e-14
	-8.328453152484822e-24,-1.029286262586975e-13
	-2.275682143866228e-04,5.118922508341603e-14
22		1.659586907437560e+00,0.000000000000000e+00
	-2.275682143866228e+00,5.238157530814182e-10
	1.000000000000000e+00,0.000000000000000e+00
	0.000000000000000e+00,0.000000000000000e+00
	2.275682143866228e-04,-5.238157530814182e-14
	8.720961057071371e-24,1.053261419556099e-13
	2.275682138390411e-12,-1.630908297232820e-15
	-2.275682166623049e-04,-5.131365835023529e-14
	-2.275682143866228e-04,5.238157530814182e-14
	-8.720961057071371e-24,-1.053261419556099e-13
	-2.275682143866228e-04,5.238157530814182e-14
23		1.698243652461743e+00,0.000000000000000e+00
	-2.275682143866228e+00,5.360169893744811e-10
	1.000000000000000e+00,0.000000000000000e+00
	0.000000000000000e+00,0.000000000000000e+00
	2.275682143866228e-04,-5.360169893744812e-14
	9.131967289299583e-24,1.077795029671436e-13
	2.275682138390411e-12,-1.668897031610897e-15
	-2.275682166623049e-04,-5.250890699808457e-14
	-2.275682143866228e-04,5.360169893744811e-14
	-9.131967289299583e-24,-1.077795029671436e-13
	-2.275682143866228e-04,5.360169893744811e-14
24		1.737800828749374e+00,0.000000000000000e+00
	-2.275682143866228e+00,5.485024289703338e-10
	1.000000000000000e+00,0.000000000000000e+00
	0.000000000000000e+00,0.000000000000000e+00
	2.275682143866228e-04,-5.485024289703339e-14
	9.562343648492577e-24,1.102900100977807e-13
	2.275682138390411e-12,-1.707770637285577e-15
	-2.275682166623049e-04,-5.373199656346178e-14
	-2.275682143866228e-04,5.485024289703338e-14
	-9.562343648492577e-24,-1.102900100977807e-13
	-2.275682143866228e-04,5.485024289703338e-14
25		1.778279410038922e+00,0.000000000000000e+00
	-2.275682143866228e+00,5.612786918143147e-10
	1.000000000000000e+00,0.000000000000000e+00
	0.000000000000000e+00,0.000000000000000e+00
	2.275682143866228e-04,-5.612786918143148e-14
	1.001300302060977e-23,1.128589944516326e-13
	2.275682138390411e-12,-1.747549725557145e-15
	-2.275682166623049e-04,-5.498357554464400e-14
	-2.275682143866228e-04,5.612786918143147e-14
	-1.001300302060977e-23,-1.128589944516326e-13
	-2.275682143866228e-04,5.612786918143147e-14
26		1.819700858609982e+00,0.000000000000000e+00
	-2.275682143866228e+00,5.743525520500972e-10
	1.000000000000000e+00,0.000000000000000e+00
	0.000000000000000e+00,0.000000000000000e+00
	2.275682143866228e-04,-5.743525520500972e-14
	1.048490131460038e-23,1.154878181382082e-13
	2.275682138390411e-12,-1.788255387824825e-15
	-2.275682166623049e-04,-5.626430754537365e-14
	-2.275682143866228e-04,5.743525520500972e-14
	-1.048490131460038e-23,-1.154878181382082e-13
	-2.275682143866228e-04,5.743525520500972e-14
27		1.862087136662866e+00,0.000000000000000e+00
	-2.275682143866228e+00,5.877309416114316e-10
	1.000000000000000e+00,0.000000000000000e+00
	0.000000000000000e+00,0.000000000000000e+00
	2.275682143866228e-04,-5.877309416114318e-14
	1.097903949001447e-23,1.181778749946226e-13
	2.275682138390411e-12,-1.829909206769418e-15
	-2.275682166623049e-04,-5.757487162671002e-14
	-2.275682143866228e-04,5.877309416114316e-14
	-1.097903949001447e-23,-1.181778749946226e-13
	-2.275682143866228e-04,5.877309416114316e-14
28		1.905460717963246e+00,0.000000000000000e+00
	-2.275682143866228e+00,6.014209538975469e-10
	1.000000000000000e+00,0.000000000000000e+00
	0.000000000000000e+00,0.000000000000000e+00
	2.275682143866228e-04,-6.014209538975471e-14
	1.149646568017233e-23,1.209305913246283e-13
	2.275682138390411e-12,-1.872533267797187e-15
	-2.275682166623049e-04,-5.891596266707638e-14
	-2.275682143866228e-04,6.014209538975470e-14
	-1.149646568017233e-23,-1.209305913246283e-13
	-2.275682143866228e-04,6.014209538975470e-14
29		1.949844599758044e+00,0.000000000000000e+00
	-2.275682143866228e+00,6.154298475341665e-10
	1.000000000000000e+00,0.000000000000000e+00
	0.000000000000000e+00,0.000000000000000e+00
	2.275682143866228e-04,-6.154298475341665e-14
	1.203827741539586e-23,1.237474266548599e-13
	2.275682138390411e-12,-1.916150170749440e-15
	-2.275682166623049e-04,-6.028829173069380e-14
	-2.275682143866228e-04,6.154298475341665e-14
	-1.203827741539586e-23,-1.237474266548599e-13
	-2.275682143866228e-04,6.154298475341665e-14
30		1.995262314968878e+00,0.000000000000000e+00
	-2.275682143866228e+00,6.297650502221254e-10
	1.000000000000000e+00,0.000000000000000e+00
	0.000000000000000e+00,0.000000000000000e+00
	2.275682143866228e-04,-6.297650502221255e-14
	1.260562395101739e-23,1.266298745086947e-13
	2.275682138390411e-12,-1.960783041885450e-15
	-2.275682166623049e-04,-6.169258644459669e-14
	-2.275682143866228e-04,6.297650502221254e-14
	-1.260562395101739e-23,-1.266298745086947e-13
	-2.275682143866228e-04,6.297650502221254e-14
31		2.041737944669527e+00,0.000000000000000e+00
	-2.275682143866228e+00,6.444341626756381e-10
	1.000000000000000e+00,0.000000000000000e+00
	0.000000000000000e+00,0.000000000000000e+00
	2.275682143866228e-04,-6.444341626756380e-14
	1.319970870510448e-23,1.295794631981386e-13
	2.275682138390411e-12,-2.006455546144355e-15
	-2.275682166623049e-04,-6.312959138443042e-14
	-2.275682143866228e-04,6.444341626756381e-14
	-1.319970870510448e-23,-1.295794631981386e-13
	-2.275682143866228e-04,6.444341626756381e-14
32		2.089296130854037e+00,0.000000000000000e+00
	-2.275682143866228e+00,6.594449626522959e-10
	1.000000000000000e+00,0.000000000000000e+00
	0.000000000000000e+00,0.000000000000000e+00
	2.275682143866228e-04,-6.594449626522959e-14
	1.382179181107088e-23,1.325977566341571e-13
	2.275682138390411e-12,-2.053191899692355e-15
	-2.275682166623049e-04,-6.460006846923514e-14
	-2.275682143866228e-04,6.594449626522959e-14
	-1.382179181107088e-23,-1.325977566341571e-13
	-2.275682143866228e-04,6.594449626522959e-14
33		2.137962089502230e+00,0.000000000000000e+00
	-2.275682143866228e+00,6.748054090769381e-10
	1.000000000000000e+00,0.000000000000000e+00
	0.000000000000000e+00,0.000000000000000e+00
	2.275682143866228e-04,-6.748054090769381e-14
	1.447319279058846e-23,1.356863551558818e-13
	2.275682138390411e-12,-2.101016882762798e-15
	-2.275682166623049e-04,-6.610479736542522e-14
	-2.275682143866228e-04,6.748054090769381e-14
	-1.447319279058846e-23,-1.356863551558818e-13
	-2.275682143866228e-04,6.748054090769381e-14
34		2.187761623949550e+00,0.000000000000000e+00
	-2.275682143866228e+00,6.905236462615782e-10
	1.000000000000000e+00,0.000000000000000e+00
	0.000000000000000e+00,0.000000000000000e+00
	2.275682143866228e-04,-6.905236462615784e-14
	1.515529335246964e-23,1.388468963791314e-13
	2.275682138390411e-12,-2.149955852794722e-15
	-2.275682166623049e-04,-6.764457590017888e-14
	-2.275682143866228e-04,6.905236462615782e-14
	-1.515529335246964e-23,-1.388468963791314e-13
	-2.275682143866228e-04,6.905236462615782e-14
35		2.238721138568337e+00,0.000000000000000e+00
	-2.275682143866228e+00,7.066080082236273e-10
	1.000000000000000e+00,0.000000000000000e+00
	0.000000000000000e+00,0.000000000000000e+00
	2.275682143866228e-04,-7.066080082236274e-14
	1.586954032345698e-23,1.420810560646972e-13
	2.275682138390411e-12,-2.200034757877831e-15
	-2.275682166623049e-04,-6.922022048445663e-14
	-2.275682143866228e-04,7.066080082236274e-14
	-1.586954032345698e-23,-1.420810560646972e-13
	-2.275682143866228e-04,7.066080082236274e-14
36		2.290867652767770e+00,0.000000000000000e+00
	-2.275682143866228e+00,7.230670231046993e-10
	1.000000000000000e+00,0.000000000000000e+00
	0.000000000000000e+00,0.000000000000000e+00
	2.275682143866228e-04,-7.230670231046994e-14
	1.661744871713671e-23,1.453905490068536e-13
	2.275682138390411e-12,-2.251280150510457e-15
	-2.275682166623049e-04,-7.083256654587317e-14
	-2.275682143866228e-04,7.230670231046994e-14
	-1.661744871713671e-23,-1.453905490068536e-13
	-2.275682143866228e-04,7.230670231046994e-14
37		2.344228815319919e+00,0.000000000000000e+00
	-2.275682143866228e+00,7.399094176923448e-10
	1.000000000000000e+00,0.000000000000000e+00
	0.000000000000000e+00,0.000000000000000e+00
	2.275682143866228e-04,-7.399094176923448e-14
	1.740060494748565e-23,1.487771299425648e-13
	2.275682138390411e-12,-2.303719201678140e-15
	-2.275682166623049e-04,-7.248246897165219e-14
	-2.275682143866228e-04,7.399094176923448e-14
	-1.740060494748565e-23,-1.487771299425648e-13
	-2.275682143866228e-04,7.399094176923448e-14
38		2.398832919019488e+00,0.000000000000000e+00
	-2.275682143866228e+00,7.571441220471101e-10
	1.000000000000000e+00,0.000000000000000e+00
	0.000000000000000e+00,0.000000000000000e+00
	2.275682143866228e-04,-7.571441220471101e-14
	1.822067019386795e-23,1.522425944818698e-13
	2.275682138390411e-12,-2.357379715259855e-15
	-2.275682166623049e-04,-7.417080256189889e-14
	-2.275682143866228e-04,7.571441220471101e-14
	-1.822067019386795e-23,-1.522425944818698e-13
	-2.275682143866228e-04,7.571441220471101e-14
39		2.454708915685027e+00,0.000000000000000e+00
	-2.275682143866228e+00,7.747802742373717e-10
	1.000000000000000e+00,0.000000000000000e+00
	0.000000000000000e+00,0.000000000000000e+00
	2.275682143866228e-04,-7.747802742373718e-14
	1.907938392461924e-23,1.557887800599379e-13
	2.275682138390411e-12,-2.412290142770196e-15
	-2.275682166623049e-04,-7.589846249343054e-14
	-2.275682143866228e-04,7.747802742373718e-14
	-1.907938392461924e-23,-1.557887800599379e-13
	-2.275682143866228e-04,7.747802742373718e-14
40		2.511886431509577e+00,0.000000000000000e+00
	-2.275682143866228e+00,7.928272251844632e-10
	1.000000000000000e+00,0.000000000000000e+00
	0.000000000000000e+00,0.000000000000000e+00
	2.275682143866228e-04,-7.928272251844634e-14
	1.997856758669222e-23,1.594175669113022e-13
	2.275682138390411e-12,-2.468479598444692e-15
	-2.275682166623049e-04,-7.766636479441113e-14
	-2.275682143866228e-04,7.928272251844632e-14
	-1.997856758669222e-23,-1.594175669113022e-13
	-2.275682143866228e-04,7.928272251844632e-14
41		2.570395782768860e+00,0.000000000000000e+00
	-2.275682143866228e+00,8.112945436206567e-10
	1.000000000000000e+00,0.000000000000000e+00
	0.000000000000000e+00,0.000000000000000e+00
	2.275682143866228e-04,-8.112945436206566e-14
	2.092012846918978e-23,1.631308790667837e-13
	2.275682138390411e-12,-2.525977874676465e-15
	-2.275682166623049e-04,-7.947544683004156e-14
	-2.275682143866228e-04,8.112945436206567e-14
	-2.092012846918978e-23,-1.631308790667837e-13
	-2.275682143866228e-04,8.112945436206567e-14
42		2.630267991895378e+00,0.000000000000000e+00
	-2.275682143866228e+00,8.301920211626305e-10
	1.000000000000000e+00,0.000000000000000e+00
	0.000000000000000e+00,0.000000000000000e+00
	2.275682143866228e-04,-8.301920211626305e-14
	2.190606374898098e-23,1.669306853736389e-13
	2.275682138390411e-12,-2.584815457812647e-15
	-2.275682166623049e-04,-8.132666779956320e-14
	-2.275682143866228e-04,8.301920211626305e-14
	-2.190606374898098e-23,-1.669306853736389e-13
	-2.275682143866228e-04,8.301920211626305e-14
43		2.691534803926912e+00,0.000000000000000e+00
	-2.275682143866228e+00,8.495296775031155e-10
	1.000000000000000e+00,0.000000000000000e+00
	0.000000000000000e+00,0.000000000000000e+00
	2.275682143866228e-04,-8.495296775031154e-14
	2.293846472698091e-23,1.708190005394681e-13
	2.275682138390411e-12,-2.645023544318669e-15
	-2.275682166623049e-04,-8.322100924483789e-14
	-2.275682143866228e-04,8.495296775031155e-14
	-2.293846472698091e-23,-1.708190005394681e-13
	-2.275682143866228e-04,8.495296775031155e-14
44		2.754228703338163e+00,0.000000000000000e+00
	-2.275682143866228e+00,8.693177657234668e-10
	1.000000000000000e+00,0.000000000000000e+00
	0.000000000000000e+00,0.000000000000000e+00
	2.275682143866228e-04,-8.693177657234669e-14
	2.401952126408028e-23,1.747978862004401e-13
	2.275682138390411e-12,-2.706634057318907e-15
	-2.275682166623049e-04,-8.515947557077445e-14
	-2.275682143866228e-04,8.693177657234668e-14
	-2.401952126408028e-23,-1.747978862004401e-13
	-2.275682143866228e-04,8.693177657234668e-14
45		2.818382931264450e+00,0.000000000000000e+00
	-2.275682143866228e+00,8.895667777299860e-10
	1.000000000000000e+00,0.000000000000000e+00
	0.000000000000000e+00,0.000000000000000e+00
	2.275682143866228e-04,-8.895667777299861e-14
	2.515152642613409e-23,1.788694520143990e-13
	2.275682138390411e-12,-2.769679663522858e-15
	-2.275682166623049e-04,-8.714309457787758e-14
	-2.275682143866228e-04,8.895667777299861e-14
	-2.515152642613409e-23,-1.788694520143990e-13
	-2.275682143866228e-04,8.895667777299861e-14
46		2.884031503126602e+00,0.000000000000000e+00
	-2.275682143866228e+00,9.102874498168657e-10
	1.000000000000000e+00,0.000000000000000e+00
	0.000000000000000e+00,0.000000000000000e+00
	2.275682143866228e-04,-9.102874498168658e-14
	2.633688134786161e-23,1.830358567794331e-13
	2.275682138390411e-12,-2.834193790545453e-15
	-2.275682166623049e-04,-8.917291800720109e-14
	-2.275682143866228e-04,9.102874498168657e-14
	-2.633688134786161e-23,-1.830358567794331e-13
	-2.275682143866228e-04,9.102874498168657e-14
47		2.951209226666381e+00,0.000000000000000e+00
	-2.275682143866228e+00,9.314907683587175e-10
	1.000000000000000e+00,0.000000000000000e+00
	0.000000000000000e+00,0.000000000000000e+00
	2.275682143866228e-04,-9.314907683587175e-14
	2.757810032597516e-23,1.872993095784977e-13
	2.275682138390411e-12,-2.900210644630770e-15
	-2.275682166623049e-04,-9.125002209799517e-14
	-2.275682143866228e-04,9.314907683587175e-14
	-2.757810032597516e-23,-1.872993095784977e-13
	-2.275682143866228e-04,9.314907683587175e-14
48		3.019951720402012e+00,0.000000000000000e+00
	-2.275682143866228e+00,9.531879756356909e-10
	1.000000000000000e+00,0.000000000000000e+00
	0.000000000000000e+00,0.000000000000000e+00
	2.275682143866228e-04,-9.531879756356910e-14
	2.887781615234041e-23,1.916620709507002e-13
	2.275682138390411e-12,-2.967765228788725e-15
	-2.275682166623049e-04,-9.337550815834241e-14
	-2.275682143866228e-04,9.531879756356908e-14
	-2.887781615234041e-23,-1.916620709507002e-13
	-2.275682143866228e-04,9.531879756356908e-14
49		3.090295432513586e+00,0.000000000000000e+00
	-2.275682143866228e+00,9.753905757942806e-10
	1.000000000000000e+00,0.000000000000000e+00
	0.000000000000000e+00,0.000000000000000e+00
	2.275682143866228e-04,-9.753905757942806e-14
	3.023878569848102e-23,1.961264540898682e-13
	2.275682138390411e-12,-3.036893361353972e-15
	-2.275682166623049e-04,-9.555050314908615e-14
	-2.275682143866228e-04,9.753905757942806e-14
	-3.023878569848102e-23,-1.961264540898682e-13
	-2.275682143866228e-04,9.753905757942806e-14
50		3.162277660168374e+00,0.000000000000000e+00
	-2.275682143866228e+00,9.981103409469773e-10
	1.000000000000000e+00,0.000000000000000e+00
	0.000000000000000e+00,0.000000000000000e+00
	2.275682143866228e-04,-9.981103409469772e-14
	3.166389576327274e-23,2.006948260710352e-13
	2.275682138390411e-12,-3.107631694977473e-15
	-2.275682166623049e-04,-9.777616028136000e-14
	-2.275682143866228e-04,9.981103409469774e-14
	-3.166389576327274e-23,-2.006948260710352e-13
	-2.275682143866228e-04,9.981103409469774e-14
51		3.235936569296277e+00,0.000000000000000e+00
	-2.275682143866228e+00,1.021359317413996e-09
	1.000000000000000e+00,0.000000000000000e+00
	0.000000000000000e+00,0.000000000000000e+00
	2.275682143866228e-04,-1.021359317413996e-13
	3.315616919623080e-23,2.053696091054951e-13
	2.275682138390411e-12,-3.180017736060017e-15
	-2.275682166623049e-04,-1.000536596280355e-13
	-2.275682143866228e-04,1.021359317413996e-13
	-3.315616919623080e-23,-2.053696091054951e-13
	-2.275682143866228e-04,1.021359317413996e-13
52		3.311311214825905e+00,0.000000000000000e+00
	-2.275682143866228e+00,1.045149832110396e-09
	1.000000000000000e+00,0.000000000000000e+00
	0.000000000000000e+00,0.000000000000000e+00
	2.275682143866228e-04,-1.045149832110396e-13
	3.471877130937912e-23,2.101532818250909e-13
	2.275682138390411e-12,-3.254089864638695e-15
	-2.275682166623049e-04,-1.023842087494125e-13
	-2.275682143866228e-04,1.045149832110396e-13
	-3.471877130937912e-23,-2.101532818250909e-13
	-2.275682143866228e-04,1.045149832110396e-13
53		3.388441561392020e+00,0.000000000000000e+00
	-2.275682143866228e+00,1.069494499081975e-09
	1.000000000000000e+00,0.000000000000000e+00
	0.000000000000000e+00,0.000000000000000e+00
	2.275682143866228e-04,-1.069494499081975e-13
	3.635501659130137e-23,2.150483805964179e-13
	2.275682138390411e-12,-3.329887354736636e-15
	-2.275682166623049e-04,-1.047690433334837e-13
	-2.275682143866228e-04,1.069494499081975e-13
	-3.635501659130137e-23,-2.150483805964179e-13
	-2.275682143866228e-04,1.069494499081975e-13
54		3.467368504525310e+00,0.000000000000000e+00
	-2.275682143866228e+00,1.094406226193401e-09
	1.000000000000000e+00,0.000000000000000e+00
	0.000000000000000e+00,0.000000000000000e+00
	2.275682143866228e-04,-1.094406226193401e-13
	3.806837573761577e-23,2.200575008656389e-13
	2.275682138390411e-12,-3.407450395186295e-15
	-2.275682166623049e-04,-1.072094278511125e-13
	-2.275682143866228e-04,1.094406226193401e-13
	-3.806837573761577e-23,-2.200575008656389e-13
	-2.275682143866228e-04,1.094406226193401e-13
55		3.548133892335748e+00,0.000000000000000e+00
	-2.275682143866228e+00,1.119898221972133e-09
	1.000000000000000e+00,0.000000000000000e+00
	0.000000000000000e+00,0.000000000000000e+00
	2.275682143866228e-04,-1.119898221972133e-13
	3.986248301278570e-23,2.251832985346242e-13
	2.275682138390411e-12,-3.486820110938403e-15
	-2.275682166623049e-04,-1.097066562264726e-13
	-2.275682143866228e-04,1.119898221972133e-13
	-3.986248301278570e-23,-2.251832985346242e-13
	-2.275682143866228e-04,1.119898221972133e-13
56		3.630780547701007e+00,0.000000000000000e+00
	-2.275682143866228e+00,1.145984002611760e-09
	1.000000000000000e+00,0.000000000000000e+00
	0.000000000000000e+00,0.000000000000000e+00
	2.275682143866228e-04,-1.145984002611760e-13
	4.174114395888193e-23,2.304284913691460e-13
	2.275682138390411e-12,-3.568038584866868e-15
	-2.275682166623049e-04,-1.122620525231031e-13
	-2.275682143866228e-04,1.145984002611760e-13
	-4.174114395888193e-23,-2.304284913691460e-13
	-2.275682143866228e-04,1.145984002611760e-13
57		3.715352290971718e+00,0.000000000000000e+00
	-2.275682143866228e+00,1.172677399138463e-09
	1.000000000000000e+00,0.000000000000000e+00
	0.000000000000000e+00,0.000000000000000e+00
	2.275682143866228e-04,-1.172677399138463e-13
	4.370834346764760e-23,2.357958604398733e-13
	2.275682138390411e-12,-3.651148880081635e-15
	-2.275682166623049e-04,-1.148769716459454e-13
	-2.275682143866228e-04,1.172677399138463e-13
	-4.370834346764760e-23,-2.357958604398733e-13
	-2.275682143866228e-04,1.172677399138463e-13