Title: * GA CMOS Amp | W=2.2935766489919234e-05 L=6.888849976093553e-07 Vbias=0.5355635103631733
Date: Mon Sep  8 20:16:22 2025
Plotname: Operating Point
Flags: real nocompression
No. Variables: 2
No. Points:            1
Offset:    0.0000000000000000e+00
Command: Linear Technology Corporation LTspice
Variables:
	0	V(out)	voltage
	1	V(g)	voltage
Values:
0		1.798865265255900e+00
	5.355635103631733e-01
