Title: * GA CMOS Amp | W=1e-06 L=8.071499671102273e-07 Vbias=1.1549191672314292
Date: Mon Sep  8 20:13:38 2025
Plotname: AC Analysis
Flags: complex forward log nocompression
No. Variables: 3
No. Points:         1801
Offset:    0.0000000000000000e+00
Command: Linear Technology Corporation LTspice
Variables:
	0	frequency	frequency
	1	V(out)	voltage
	2	V(g)	voltage
Values:
0		1.000000000000000e+00,0.000000000000000e+00
	-2.744536343831421e-01,1.591425623653224e-11
	1.000000000000000e+00,0.000000000000000e+00
1		1.011579454259899e+00,0.000000000000000e+00
	-2.744536343831421e-01,1.609853463870347e-11
	1.000000000000000e+00,0.000000000000000e+00
2		1.023292992280754e+00,0.000000000000000e+00
	-2.744536343831421e-01,1.628494688420373e-11
	1.000000000000000e+00,0.000000000000000e+00
3		1.035142166679344e+00,0.000000000000000e+00
	-2.744536343831421e-01,1.647351768177425e-11
	1.000000000000000e+00,0.000000000000000e+00
4		1.047128548050900e+00,0.000000000000000e+00
	-2.744536343831421e-01,1.666427202626998e-11
	1.000000000000000e+00,0.000000000000000e+00
5		1.059253725177289e+00,0.000000000000000e+00
	-2.744536343831421e-01,1.685723520197268e-11
	1.000000000000000e+00,0.000000000000000e+00
6		1.071519305237607e+00,0.000000000000000e+00
	-2.744536343831421e-01,1.705243278594228e-11
	1.000000000000000e+00,0.000000000000000e+00
7		1.083926914021204e+00,0.000000000000000e+00
	-2.744536343831421e-01,1.724989065140709e-11
	1.000000000000000e+00,0.000000000000000e+00
8		1.096478196143186e+00,0.000000000000000e+00
	-2.744536343831421e-01,1.744963497119331e-11
	1.000000000000000e+00,0.000000000000000e+00
9		1.109174815262402e+00,0.000000000000000e+00
	-2.744536343831421e-01,1.765169222119417e-11
	1.000000000000000e+00,0.000000000000000e+00
10		1.122018454301964e+00,0.000000000000000e+00
	-2.744536343831421e-01,1.785608918387929e-11
	1.000000000000000e+00,0.000000000000000e+00
11		1.135010815672316e+00,0.000000000000000e+00
	-2.744536343831421e-01,1.806285295184470e-11
	1.000000000000000e+00,0.000000000000000e+00
12		1.148153621496884e+00,0.000000000000000e+00
	-2.744536343831421e-01,1.827201093140386e-11
	1.000000000000000e+00,0.000000000000000e+00
13		1.161448613840344e+00,0.000000000000000e+00
	-2.744536343831421e-01,1.848359084622042e-11
	1.000000000000000e+00,0.000000000000000e+00
14		1.174897554939531e+00,0.000000000000000e+00
	-2.744536343831421e-01,1.869762074098291e-11
	1.000000000000000e+00,0.000000000000000e+00
15		1.188502227437020e+00,0.000000000000000e+00
	-2.744536343831421e-01,1.891412898512205e-11
	1.000000000000000e+00,0.000000000000000e+00
16		1.202264434617414e+00,0.000000000000000e+00
	-2.744536343831421e-01,1.913314427657109e-11
	1.000000000000000e+00,0.000000000000000e+00
17		1.216186000646369e+00,0.000000000000000e+00
	-2.744536343831421e-01,1.935469564556968e-11
	1.000000000000000e+00,0.000000000000000e+00
18		1.230268770812383e+00,0.000000000000000e+00
	-2.744536343831421e-01,1.957881245851182e-11
	1.000000000000000e+00,0.000000000000000e+00
19		1.244514611771387e+00,0.000000000000000e+00
	-2.744536343831421e-01,1.980552442183828e-11
	1.000000000000000e+00,0.000000000000000e+00
20		1.258925411794169e+00,0.000000000000000e+00
	-2.744536343831421e-01,2.003486158597427e-11
	1.000000000000000e+00,0.000000000000000e+00
21		1.273503081016663e+00,0.000000000000000e+00
	-2.744536343831421e-01,2.026685434931246e-11
	1.000000000000000e+00,0.000000000000000e+00
22		1.288249551693136e+00,0.000000000000000e+00
	-2.744536343831421e-01,2.050153346224234e-11
	1.000000000000000e+00,0.000000000000000e+00
23		1.303166778452301e+00,0.000000000000000e+00
	-2.744536343831421e-01,2.073893003122616e-11
	1.000000000000000e+00,0.000000000000000e+00
24		1.318256738556409e+00,0.000000000000000e+00
	-2.744536343831421e-01,2.097907552292198e-11
	1.000000000000000e+00,0.000000000000000e+00
25		1.333521432163326e+00,0.000000000000000e+00
	-2.744536343831421e-01,2.122200176835461e-11
	1.000000000000000e+00,0.000000000000000e+00
26		1.348962882591656e+00,0.000000000000000e+00
	-2.744536343831421e-01,2.146774096713476e-11
	1.000000000000000e+00,0.000000000000000e+00
27		1.364583136588927e+00,0.000000000000000e+00
	-2.744536343831421e-01,2.171632569172705e-11
	1.000000000000000e+00,0.000000000000000e+00
28		1.380384264602887e+00,0.000000000000000e+00
	-2.744536343831421e-01,2.196778889176747e-11
	1.000000000000000e+00,0.000000000000000e+00
29		1.396368361055940e+00,0.000000000000000e+00
	-2.744536343831421e-01,2.222216389843080e-11
	1.000000000000000e+00,0.000000000000000e+00
30		1.412537544622757e+00,0.000000000000000e+00
	-2.744536343831421e-01,2.247948442884865e-11
	1.000000000000000e+00,0.000000000000000e+00
31		1.428893958511106e+00,0.000000000000000e+00
	-2.744536343831421e-01,2.273978459057860e-11
	1.000000000000000e+00,0.000000000000000e+00
32		1.445439770745931e+00,0.000000000000000e+00
	-2.744536343831421e-01,2.300309888612516e-11
	1.000000000000000e+00,0.000000000000000e+00
33		1.462177174456721e+00,0.000000000000000e+00
	-2.744536343831421e-01,2.326946221751297e-11
	1.000000000000000e+00,0.000000000000000e+00
34		1.479108388168211e+00,0.000000000000000e+00
	-2.744536343831421e-01,2.353890989091310e-11
	1.000000000000000e+00,0.000000000000000e+00
35		1.496235656094437e+00,0.000000000000000e+00
	-2.744536343831421e-01,2.381147762132280e-11
	1.000000000000000e+00,0.000000000000000e+00
36		1.513561248436212e+00,0.000000000000000e+00
	-2.744536343831421e-01,2.408720153729951e-11
	1.000000000000000e+00,0.000000000000000e+00
37		1.531087461682034e+00,0.000000000000000e+00
	-2.744536343831421e-01,2.436611818574962e-11
	1.000000000000000e+00,0.000000000000000e+00
38		1.548816618912485e+00,0.000000000000000e+00
	-2.744536343831421e-01,2.464826453677280e-11
	1.000000000000000e+00,0.000000000000000e+00
39		1.566751070108153e+00,0.000000000000000e+00
	-2.744536343831421e-01,2.493367798856224e-11
	1.000000000000000e+00,0.000000000000000e+00
40		1.584893192461118e+00,0.000000000000000e+00
	-2.744536343831421e-01,2.522239637236183e-11
	1.000000000000000e+00,0.000000000000000e+00
41		1.603245390690046e+00,0.000000000000000e+00
	-2.744536343831421e-01,2.551445795748063e-11
	1.000000000000000e+00,0.000000000000000e+00
42		1.621810097358934e+00,0.000000000000000e+00
	-2.744536343831421e-01,2.580990145636538e-11
	1.000000000000000e+00,0.000000000000000e+00
43		1.640589773199544e+00,0.000000000000000e+00
	-2.744536343831421e-01,2.610876602973185e-11
	1.000000000000000e+00,0.000000000000000e+00
44		1.659586907437565e+00,0.000000000000000e+00
	-2.744536343831421e-01,2.641109129175552e-11
	1.000000000000000e+00,0.000000000000000e+00
45		1.678804018122565e+00,0.000000000000000e+00
	-2.744536343831421e-01,2.671691731532242e-11
	1.000000000000000e+00,0.000000000000000e+00
46		1.698243652461749e+00,0.000000000000000e+00
	-2.744536343831421e-01,2.702628463734068e-11
	1.000000000000000e+00,0.000000000000000e+00
47		1.717908387157593e+00,0.000000000000000e+00
	-2.744536343831421e-01,2.733923426411377e-11
	1.000000000000000e+00,0.000000000000000e+00
48		1.737800828749381e+00,0.000000000000000e+00
	-2.744536343831421e-01,2.765580767677572e-11
	1.000000000000000e+00,0.000000000000000e+00
49		1.757923613958698e+00,0.000000000000000e+00
	-2.744536343831421e-01,2.797604683678950e-11
	1.000000000000000e+00,0.000000000000000e+00
50		1.778279410038929e+00,0.000000000000000e+00
	-2.744536343831421e-01,2.829999419150889e-11
	1.000000000000000e+00,0.000000000000000e+00
51		1.798870915128794e+00,0.000000000000000e+00
	-2.744536343831421e-01,2.862769267980486e-11
	1.000000000000000e+00,0.000000000000000e+00
52		1.819700858609990e+00,0.000000000000000e+00
	-2.744536343831421e-01,2.895918573775710e-11
	1.000000000000000e+00,0.000000000000000e+00
53		1.840772001468962e+00,0.000000000000000e+00
	-2.744536343831421e-01,2.929451730441136e-11
	1.000000000000000e+00,0.000000000000000e+00
54		1.862087136662874e+00,0.000000000000000e+00
	-2.744536343831421e-01,2.963373182760360e-11
	1.000000000000000e+00,0.000000000000000e+00
55		1.883649089489807e+00,0.000000000000000e+00
	-2.744536343831421e-01,2.997687426985144e-11
	1.000000000000000e+00,0.000000000000000e+00
56		1.905460717963254e+00,0.000000000000000e+00
	-2.744536343831421e-01,3.032399011431391e-11
	1.000000000000000e+00,0.000000000000000e+00
57		1.927524913190943e+00,0.000000000000000e+00
	-2.744536343831421e-01,3.067512537082023e-11
	1.000000000000000e+00,0.000000000000000e+00
58		1.949844599758053e+00,0.000000000000000e+00
	-2.744536343831421e-01,3.103032658196829e-11
	1.000000000000000e+00,0.000000000000000e+00
59		1.972422736114861e+00,0.000000000000000e+00
	-2.744536343831421e-01,3.138964082929392e-11
	1.000000000000000e+00,0.000000000000000e+00
60		1.995262314968888e+00,0.000000000000000e+00
	-2.744536343831421e-01,3.175311573951137e-11
	1.000000000000000e+00,0.000000000000000e+00
61		2.018366363681569e+00,0.000000000000000e+00
	-2.744536343831421e-01,3.212079949082630e-11
	1.000000000000000e+00,0.000000000000000e+00
62		2.041737944669538e+00,0.000000000000000e+00
	-2.744536343831421e-01,3.249274081932171e-11
	1.000000000000000e+00,0.000000000000000e+00
63		2.065380155810538e+00,0.000000000000000e+00
	-2.744536343831421e-01,3.286898902541778e-11
	1.000000000000000e+00,0.000000000000000e+00
64		2.089296130854049e+00,0.000000000000000e+00
	-2.744536343831421e-01,3.324959398040672e-11
	1.000000000000000e+00,0.000000000000000e+00
65		2.113489039836656e+00,0.000000000000000e+00
	-2.744536343831421e-01,3.363460613306303e-11
	1.000000000000000e+00,0.000000000000000e+00
66		2.137962089502242e+00,0.000000000000000e+00
	-2.744536343831421e-01,3.402407651633055e-11
	1.000000000000000e+00,0.000000000000000e+00
67		2.162718523727030e+00,0.000000000000000e+00
	-2.744536343831421e-01,3.441805675408669e-11
	1.000000000000000e+00,0.000000000000000e+00
68		2.187761623949563e+00,0.000000000000000e+00
	-2.744536343831421e-01,3.481659906798523e-11
	1.000000000000000e+00,0.000000000000000e+00
69		2.213094709605648e+00,0.000000000000000e+00
	-2.744536343831421e-01,3.521975628437820e-11
	1.000000000000000e+00,0.000000000000000e+00
70		2.238721138568351e+00,0.000000000000000e+00
	-2.744536343831421e-01,3.562758184131793e-11
	1.000000000000000e+00,0.000000000000000e+00
71		2.264644307593071e+00,0.000000000000000e+00
	-2.744536343831421e-01,3.604012979564026e-11
	1.000000000000000e+00,0.000000000000000e+00
72		2.290867652767784e+00,0.000000000000000e+00
	-2.744536343831421e-01,3.645745483012968e-11
	1.000000000000000e+00,0.000000000000000e+00
73		2.317394649968490e+00,0.000000000000000e+00
	-2.744536343831421e-01,3.687961226076749e-11
	1.000000000000000e+00,0.000000000000000e+00
74		2.344228815319934e+00,0.000000000000000e+00
	-2.744536343831421e-01,3.730665804406383e-11
	1.000000000000000e+00,0.000000000000000e+00
75		2.371373705661667e+00,0.000000000000000e+00
	-2.744536343831421e-01,3.773864878447475e-11
	1.000000000000000e+00,0.000000000000000e+00
76		2.398832919019502e+00,0.000000000000000e+00
	-2.744536343831421e-01,3.817564174190495e-11
	1.000000000000000e+00,0.000000000000000e+00
77		2.426610095082428e+00,0.000000000000000e+00
	-2.744536343831421e-01,3.861769483929762e-11
	1.000000000000000e+00,0.000000000000000e+00
78		2.454708915685043e+00,0.000000000000000e+00
	-2.744536343831421e-01,3.906486667031198e-11
	1.000000000000000e+00,0.000000000000000e+00
79		2.483133105295583e+00,0.000000000000000e+00
	-2.744536343831421e-01,3.951721650708990e-11
	1.000000000000000e+00,0.000000000000000e+00
80		2.511886431509593e+00,0.000000000000000e+00
	-2.744536343831421e-01,3.997480430811225e-11
	1.000000000000000e+00,0.000000000000000e+00
81		2.540972705549319e+00,0.000000000000000e+00
	-2.744536343831421e-01,4.043769072614644e-11
	1.000000000000000e+00,0.000000000000000e+00
82		2.570395782768878e+00,0.000000000000000e+00
	-2.744536343831421e-01,4.090593711628578e-11
	1.000000000000000e+00,0.000000000000000e+00
83		2.600159563165286e+00,0.000000000000000e+00
	-2.744536343831421e-01,4.137960554408209e-11
	1.000000000000000e+00,0.000000000000000e+00
84		2.630267991895396e+00,0.000000000000000e+00
	-2.744536343831421e-01,4.185875879377243e-11
	1.000000000000000e+00,0.000000000000000e+00
85		2.660725059798824e+00,0.000000000000000e+00
	-2.744536343831421e-01,4.234346037660105e-11
	1.000000000000000e+00,0.000000000000000e+00
86		2.691534803926931e+00,0.000000000000000e+00
	-2.744536343831421e-01,4.283377453923774e-11
	1.000000000000000e+00,0.000000000000000e+00
87		2.722701308077928e+00,0.000000000000000e+00
	-2.744536343831421e-01,4.332976627229364e-11
	1.000000000000000e+00,0.000000000000000e+00
88		2.754228703338182e+00,0.000000000000000e+00
	-2.744536343831421e-01,4.383150131893577e-11
	1.000000000000000e+00,0.000000000000000e+00
89		2.786121168629787e+00,0.000000000000000e+00
	-2.744536343831421e-01,4.433904618360106e-11
	1.000000000000000e+00,0.000000000000000e+00
90		2.818382931264471e+00,0.000000000000000e+00
	-2.744536343831421e-01,4.485246814081161e-11
	1.000000000000000e+00,0.000000000000000e+00
91		2.851018267503926e+00,0.000000000000000e+00
	-2.744536343831421e-01,4.537183524409170e-11
	1.000000000000000e+00,0.000000000000000e+00
92		2.884031503126623e+00,0.000000000000000e+00
	-2.744536343831421e-01,4.589721633498831e-11
	1.000000000000000e+00,0.000000000000000e+00
93		2.917427014001185e+00,0.000000000000000e+00
	-2.744536343831421e-01,4.642868105219597e-11
	1.000000000000000e+00,0.000000000000000e+00
94		2.951209226666404e+00,0.000000000000000e+00
	-2.744536343831421e-01,4.696629984078730e-11
	1.000000000000000e+00,0.000000000000000e+00
95		2.985382618917978e+00,0.000000000000000e+00
	-2.744536343831421e-01,4.751014396155038e-11
	1.000000000000000e+00,0.000000000000000e+00
96		3.019951720402035e+00,0.000000000000000e+00
	-2.744536343831421e-01,4.806028550043435e-11
	1.000000000000000e+00,0.000000000000000e+00
97		3.054921113215533e+00,0.000000000000000e+00
	-2.744536343831421e-01,4.861679737810429e-11
	1.000000000000000e+00,0.000000000000000e+00
98		3.090295432513610e+00,0.000000000000000e+00
	-2.744536343831421e-01,4.917975335960682e-11
	1.000000000000000e+00,0.000000000000000e+00
99		3.126079367123975e+00,0.000000000000000e+00
	-2.744536343831421e-01,4.974922806414748e-11
	1.000000000000000e+00,0.000000000000000e+00
100		3.162277660168400e+00,0.000000000000000e+00
	-2.744536343831421e-01,5.032529697498154e-11
	1.000000000000000e+00,0.000000000000000e+00
101		3.198895109691419e+00,0.000000000000000e+00
	-2.744536343831421e-01,5.090803644941914e-11
	1.000000000000000e+00,0.000000000000000e+00
102		3.235936569296304e+00,0.000000000000000e+00
	-2.744536343831421e-01,5.149752372894645e-11
	1.000000000000000e+00,0.000000000000000e+00
103		3.273406948788404e+00,0.000000000000000e+00
	-2.744536343831421e-01,5.209383694946382e-11
	1.000000000000000e+00,0.000000000000000e+00
104		3.311311214825934e+00,0.000000000000000e+00
	-2.744536343831421e-01,5.269705515164275e-11
	1.000000000000000e+00,0.000000000000000e+00
105		3.349654391578300e+00,0.000000000000000e+00
	-2.744536343831421e-01,5.330725829140256e-11
	1.000000000000000e+00,0.000000000000000e+00
106		3.388441561392050e+00,0.000000000000000e+00
	-2.744536343831421e-01,5.392452725050845e-11
	1.000000000000000e+00,0.000000000000000e+00
107		3.427677865464528e+00,0.000000000000000e+00
	-2.744536343831421e-01,5.454894384729237e-11
	1.000000000000000e+00,0.000000000000000e+00
108		3.467368504525342e+00,0.000000000000000e+00
	-2.744536343831421e-01,5.518059084749788e-11
	1.000000000000000e+00,0.000000000000000e+00
109		3.507518739525706e+00,0.000000000000000e+00
	-2.744536343831421e-01,5.581955197525066e-11
	1.000000000000000e+00,0.000000000000000e+00
110		3.548133892335781e+00,0.000000000000000e+00
	-2.744536343831421e-01,5.646591192415610e-11
	1.000000000000000e+00,0.000000000000000e+00
111		3.589219346450079e+00,0.000000000000000e+00
	-2.744536343831421e-01,5.711975636852533e-11
	1.000000000000000e+00,0.000000000000000e+00
112		3.630780547701041e+00,0.000000000000000e+00
	-2.744536343831421e-01,5.778117197473122e-11
	1.000000000000000e+00,0.000000000000000e+00
113		3.672823004980875e+00,0.000000000000000e+00
	-2.744536343831421e-01,5.845024641269596e-11
	1.000000000000000e+00,0.000000000000000e+00
114		3.715352290971754e+00,0.000000000000000e+00
	-2.744536343831421e-01,5.912706836751158e-11
	1.000000000000000e+00,0.000000000000000e+00
115		3.758374042884471e+00,0.000000000000000e+00
	-2.744536343831421e-01,5.981172755119506e-11
	1.000000000000000e+00,0.000000000000000e+00
116		3.801893963205642e+00,0.000000000000000e+00
	-2.744536343831421e-01,6.050431471457965e-11
	1.000000000000000e+00,0.000000000000000e+00
117		3.845917820453566e+00,0.000000000000000e+00
	-2.744536343831421e-01,6.120492165934363e-11
	1.000000000000000e+00,0.000000000000000e+00
118		3.890451449942837e+00,0.000000000000000e+00
	-2.744536343831421e-01,6.191364125017868e-11
	1.000000000000000e+00,0.000000000000000e+00
119		3.935500754557806e+00,0.000000000000000e+00
	-2.744536343831421e-01,6.263056742709889e-11
	1.000000000000000e+00,0.000000000000000e+00
120		3.981071705535005e+00,0.000000000000000e+00
	-2.744536343831421e-01,6.335579521789249e-11
	1.000000000000000e+00,0.000000000000000e+00
121		4.027170343254624e+00,0.000000000000000e+00
	-2.744536343831421e-01,6.408942075071757e-11
	1.000000000000000e+00,0.000000000000000e+00
122		4.073802778041161e+00,0.000000000000000e+00
	-2.744536343831421e-01,6.483154126684389e-11
	1.000000000000000e+00,0.000000000000000e+00
123		4.120975190973336e+00,0.000000000000000e+00
	-2.744536343831421e-01,6.558225513354204e-11
	1.000000000000000e+00,0.000000000000000e+00
124		4.168693834703389e+00,0.000000000000000e+00
	-2.744536343831421e-01,6.634166185712191e-11
	1.000000000000000e+00,0.000000000000000e+00
125		4.216965034285859e+00,0.000000000000000e+00
	-2.744536343831421e-01,6.710986209612211e-11
	1.000000000000000e+00,0.000000000000000e+00
126		4.265795188015963e+00,0.000000000000000e+00
	-2.744536343831421e-01,6.788695767465225e-11
	1.000000000000000e+00,0.000000000000000e+00
127		4.315190768277690e+00,0.000000000000000e+00
	-2.744536343831421e-01,6.867305159588956e-11
	1.000000000000000e+00,0.000000000000000e+00
128		4.365158322401698e+00,0.000000000000000e+00
	-2.744536343831421e-01,6.946824805573183e-11
	1.000000000000000e+00,0.000000000000000e+00
129		4.415704473533165e+00,0.000000000000000e+00
	-2.744536343831421e-01,7.027265245660847e-11
	1.000000000000000e+00,0.000000000000000e+00
130		4.466835921509672e+00,0.000000000000000e+00
	-2.744536343831421e-01,7.108637142145152e-11
	1.000000000000000e+00,0.000000000000000e+00
131		4.518559443749265e+00,0.000000000000000e+00
	-2.744536343831421e-01,7.190951280782838e-11
	1.000000000000000e+00,0.000000000000000e+00
132		4.570881896148792e+00,0.000000000000000e+00
	-2.744536343831421e-01,7.274218572223822e-11
	1.000000000000000e+00,0.000000000000000e+00
133		4.623810213992646e+00,0.000000000000000e+00
	-2.744536343831421e-01,7.358450053457392e-11
	1.000000000000000e+00,0.000000000000000e+00
134		4.677351412872025e+00,0.000000000000000e+00
	-2.744536343831421e-01,7.443656889275152e-11
	1.000000000000000e+00,0.000000000000000e+00
135		4.731512589614849e+00,0.000000000000000e+00
	-2.744536343831421e-01,7.529850373750891e-11
	1.000000000000000e+00,0.000000000000000e+00
136		4.786300923226428e+00,0.000000000000000e+00
	-2.744536343831421e-01,7.617041931737620e-11
	1.000000000000000e+00,0.000000000000000e+00
137		4.841723675841039e+00,0.000000000000000e+00
	-2.744536343831421e-01,7.705243120381906e-11
	1.000000000000000e+00,0.000000000000000e+00
138		4.897788193684509e+00,0.000000000000000e+00
	-2.744536343831421e-01,7.794465630655766e-11
	1.000000000000000e+00,0.000000000000000e+00
139		4.954501908047950e+00,0.000000000000000e+00
	-2.744536343831421e-01,7.884721288906297e-11
	1.000000000000000e+00,0.000000000000000e+00
140		5.011872336272772e+00,0.000000000000000e+00
	-2.744536343831421e-01,7.976022058423236e-11
	1.000000000000000e+00,0.000000000000000e+00
141		5.069907082747093e+00,0.000000000000000e+00
	-2.744536343831421e-01,8.068380041024690e-11
	1.000000000000000e+00,0.000000000000000e+00
142		5.128613839913699e+00,0.000000000000000e+00
	-2.744536343831421e-01,8.161807478661213e-11
	1.000000000000000e+00,0.000000000000000e+00
143		5.188000389289662e+00,0.000000000000000e+00
	-2.744536343831421e-01,8.256316755038470e-11
	1.000000000000000e+00,0.000000000000000e+00
144		5.248074602497778e+00,0.000000000000000e+00
	-2.744536343831421e-01,8.351920397258671e-11
	1.000000000000000e+00,0.000000000000000e+00
145		5.308844442309936e+00,0.000000000000000e+00
	-2.744536343831421e-01,8.448631077481040e-11
	1.000000000000000e+00,0.000000000000000e+00
146		5.370317963702581e+00,0.000000000000000e+00
	-2.744536343831421e-01,8.546461614601491e-11
	1.000000000000000e+00,0.000000000000000e+00
147		5.432503314924387e+00,0.000000000000000e+00
	-2.744536343831421e-01,8.645424975951748e-11
	1.000000000000000e+00,0.000000000000000e+00
148		5.495408738576301e+00,0.000000000000000e+00
	-2.744536343831421e-01,8.745534279018165e-11
	1.000000000000000e+00,0.000000000000000e+00
149		5.559042572704092e+00,0.000000000000000e+00
	-2.744536343831421e-01,8.846802793180431e-11
	1.000000000000000e+00,0.000000000000000e+00
150		5.623413251903548e+00,0.000000000000000e+00
	-2.744536343831421e-01,8.949243941470408e-11
	1.000000000000000e+00,0.000000000000000e+00
151		5.688529308438473e+00,0.000000000000000e+00
	-2.744536343831421e-01,9.052871302351338e-11
	1.000000000000000e+00,0.000000000000000e+00
152		5.754399373371629e+00,0.000000000000000e+00
	-2.744536343831421e-01,9.157698611517665e-11
	1.000000000000000e+00,0.000000000000000e+00
153		5.821032177708775e+00,0.000000000000000e+00
	-2.744536343831421e-01,9.263739763715671e-11
	1.000000000000000e+00,0.000000000000000e+00
154		5.888436553555951e+00,0.000000000000000e+00
	-2.744536343831421e-01,9.371008814585220e-11
	1.000000000000000e+00,0.000000000000000e+00
155		5.956621435290167e+00,0.000000000000000e+00
	-2.744536343831421e-01,9.479519982522816e-11
	1.000000000000000e+00,0.000000000000000e+00
156		6.025595860743641e+00,0.000000000000000e+00
	-2.744536343831421e-01,9.589287650566233e-11
	1.000000000000000e+00,0.000000000000000e+00
157		6.095368972401756e+00,0.000000000000000e+00
	-2.744536343831421e-01,9.700326368300974e-11
	1.000000000000000e+00,0.000000000000000e+00
158		6.165950018614887e+00,0.000000000000000e+00
	-2.744536343831421e-01,9.812650853788804e-11
	1.000000000000000e+00,0.000000000000000e+00
159		6.237348354824259e+00,0.000000000000000e+00
	-2.744536343831421e-01,9.926275995518606e-11
	1.000000000000000e+00,0.000000000000000e+00
160		6.309573444802000e+00,0.000000000000000e+00
	-2.744536343831421e-01,1.004121685437984e-10
	1.000000000000000e+00,0.000000000000000e+00
161		6.382634861905555e+00,0.000000000000000e+00
	-2.744536343831421e-01,1.015748866565886e-10
	1.000000000000000e+00,0.000000000000000e+00
162		6.456542290346625e+00,0.000000000000000e+00
	-2.744536343831421e-01,1.027510684105829e-10
	1.000000000000000e+00,0.000000000000000e+00
163		6.531305526474794e+00,0.000000000000000e+00
	-2.744536343831421e-01,1.039408697073990e-10
	1.000000000000000e+00,0.000000000000000e+00
164		6.606934480076032e+00,0.000000000000000e+00
	-2.744536343831421e-01,1.051444482539099e-10
	1.000000000000000e+00,0.000000000000000e+00
165		6.683439175686219e+00,0.000000000000000e+00
	-2.744536343831421e-01,1.063619635831483e-10
	1.000000000000000e+00,0.000000000000000e+00
166		6.760829753919892e+00,0.000000000000000e+00
	-2.744536343831421e-01,1.075935770754524e-10
	1.000000000000000e+00,0.000000000000000e+00
167		6.839116472814369e+00,0.000000000000000e+00
	-2.744536343831421e-01,1.088394519798564e-10
	1.000000000000000e+00,0.000000000000000e+00
168		6.918309709189442e+00,0.000000000000000e+00
	-2.744536343831421e-01,1.100997534357296e-10
	1.000000000000000e+00,0.000000000000000e+00
169		6.998419960022813e+00,0.000000000000000e+00
	-2.744536343831421e-01,1.113746484946648e-10
	1.000000000000000e+00,0.000000000000000e+00
170		7.079457843841459e+00,0.000000000000000e+00
	-2.744536343831421e-01,1.126643061426210e-10
	1.000000000000000e+00,0.000000000000000e+00
171		7.161434102129101e+00,0.000000000000000e+00
	-2.744536343831421e-01,1.139688973223227e-10
	1.000000000000000e+00,0.000000000000000e+00
172		7.244359600749983e+00,0.000000000000000e+00
	-2.744536343831421e-01,1.152885949559176e-10
	1.000000000000000e+00,0.000000000000000e+00
173		7.328245331389125e+00,0.000000000000000e+00
	-2.744536343831421e-01,1.166235739678977e-10
	1.000000000000000e+00,0.000000000000000e+00
174		7.413102413009261e+00,0.000000000000000e+00
	-2.744536343831421e-01,1.179740113082848e-10
	1.000000000000000e+00,0.000000000000000e+00
175		7.498942093324645e+00,0.000000000000000e+00
	-2.744536343831421e-01,1.193400859760859e-10
	1.000000000000000e+00,0.000000000000000e+00
176		7.585775750291926e+00,0.000000000000000e+00
	-2.744536343831421e-01,1.207219790430183e-10
	1.000000000000000e+00,0.000000000000000e+00
177		7.673614893618280e+00,0.000000000000000e+00
	-2.744536343831421e-01,1.221198736775114e-10
	1.000000000000000e+00,0.000000000000000e+00
178		7.762471166287009e+00,0.000000000000000e+00
	-2.744536343831421e-01,1.235339551689847e-10
	1.000000000000000e+00,0.000000000000000e+00
179		7.852356346100811e+00,0.000000000000000e+00
	-2.744536343831421e-01,1.249644109524083e-10
	1.000000000000000e+00,0.000000000000000e+00
180		7.943282347242909e+00,0.000000000000000e+00
	-2.744536343831421e-01,1.264114306331469e-10
	1.000000000000000e+00,0.000000000000000e+00
181		8.035261221856269e+00,0.000000000000000e+00
	-2.744536343831421e-01,1.278752060120918e-10
	1.000000000000000e+00,0.000000000000000e+00
182		8.128305161641091e+00,0.000000000000000e+00
	-2.744536343831421e-01,1.293559311110839e-10
	1.000000000000000e+00,0.000000000000000e+00
183		8.222426499470812e+00,0.000000000000000e+00
	-2.744536343831421e-01,1.308538021986313e-10
	1.000000000000000e+00,0.000000000000000e+00
184		8.317637711026812e+00,0.000000000000000e+00
	-2.744536343831421e-01,1.323690178159242e-10
	1.000000000000000e+00,0.000000000000000e+00
185		8.413951416452054e+00,0.000000000000000e+00
	-2.744536343831421e-01,1.339017788031514e-10
	1.000000000000000e+00,0.000000000000000e+00
186		8.511380382023869e+00,0.000000000000000e+00
	-2.744536343831421e-01,1.354522883261215e-10
	1.000000000000000e+00,0.000000000000000e+00
187		8.609937521846113e+00,0.000000000000000e+00
	-2.744536343831421e-01,1.370207519031924e-10
	1.000000000000000e+00,0.000000000000000e+00
188		8.709635899560915e+00,0.000000000000000e+00
	-2.744536343831421e-01,1.386073774325124e-10
	1.000000000000000e+00,0.000000000000000e+00
189		8.810488730080252e+00,0.000000000000000e+00
	-2.744536343831421e-01,1.402123752195767e-10
	1.000000000000000e+00,0.000000000000000e+00
190		8.912509381337568e+00,0.000000000000000e+00
	-2.744536343831421e-01,1.418359580051035e-10
	1.000000000000000e+00,0.000000000000000e+00
191		9.015711376059683e+00,0.000000000000000e+00
	-2.744536343831421e-01,1.434783409932324e-10
	1.000000000000000e+00,0.000000000000000e+00
192		9.120108393559214e+00,0.000000000000000e+00
	-2.744536343831421e-01,1.451397418800497e-10
	1.000000000000000e+00,0.000000000000000e+00
193		9.225714271547750e+00,0.000000000000000e+00
	-2.744536343831421e-01,1.468203808824433e-10
	1.000000000000000e+00,0.000000000000000e+00
194		9.332543007970031e+00,0.000000000000000e+00
	-2.744536343831421e-01,1.485204807672924e-10
	1.000000000000000e+00,0.000000000000000e+00
195		9.440608762859357e+00,0.000000000000000e+00
	-2.744536343831421e-01,1.502402668809954e-10
	1.000000000000000e+00,0.000000000000000e+00
196		9.549925860214485e+00,0.000000000000000e+00
	-2.744536343831421e-01,1.519799671793389e-10
	1.000000000000000e+00,0.000000000000000e+00
197		9.660508789898261e+00,0.000000000000000e+00
	-2.744536343831421e-01,1.537398122577129e-10
	1.000000000000000e+00,0.000000000000000e+00
198		9.772372209558236e+00,0.000000000000000e+00
	-2.744536343831421e-01,1.555200353816765e-10
	1.000000000000000e+00,0.000000000000000e+00
199		9.885530946569521e+00,0.000000000000000e+00
	-2.744536343831421e-01,1.573208725178764e-10
	1.000000000000000e+00,0.000000000000000e+00
200		1.000000000000014e+01,0.000000000000000e+00
	-2.744536343831421e-01,1.591425623653245e-10
	1.000000000000000e+00,0.000000000000000e+00
201		1.011579454259912e+01,0.000000000000000e+00
	-2.744536343831421e-01,1.609853463870368e-10
	1.000000000000000e+00,0.000000000000000e+00
202		1.023292992280768e+01,0.000000000000000e+00
	-2.744536343831421e-01,1.628494688420395e-10
	1.000000000000000e+00,0.000000000000000e+00
203		1.035142166679358e+01,0.000000000000000e+00
	-2.744536343831421e-01,1.647351768177447e-10
	1.000000000000000e+00,0.000000000000000e+00
204		1.047128548050914e+01,0.000000000000000e+00
	-2.744536343831421e-01,1.666427202627021e-10
	1.000000000000000e+00,0.000000000000000e+00
205		1.059253725177304e+01,0.000000000000000e+00
	-2.744536343831421e-01,1.685723520197291e-10
	1.000000000000000e+00,0.000000000000000e+00
206		1.071519305237621e+01,0.000000000000000e+00
	-2.744536343831421e-01,1.705243278594251e-10
	1.000000000000000e+00,0.000000000000000e+00
207		1.083926914021219e+01,0.000000000000000e+00
	-2.744536343831421e-01,1.724989065140733e-10
	1.000000000000000e+00,0.000000000000000e+00
208		1.096478196143201e+01,0.000000000000000e+00
	-2.744536343831421e-01,1.744963497119355e-10
	1.000000000000000e+00,0.000000000000000e+00
209		1.109174815262417e+01,0.000000000000000e+00
	-2.744536343831421e-01,1.765169222119441e-10
	1.000000000000000e+00,0.000000000000000e+00
210		1.122018454301980e+01,0.000000000000000e+00
	-2.744536343831421e-01,1.785608918387954e-10
	1.000000000000000e+00,0.000000000000000e+00
211		1.135010815672332e+01,0.000000000000000e+00
	-2.744536343831421e-01,1.806285295184495e-10
	1.000000000000000e+00,0.000000000000000e+00
212		1.148153621496900e+01,0.000000000000000e+00