Title: * GA CMOS Amp | W=3.3860973137458085e-05 L=1e-06 Vbias=0.6072403380905689
Date: Mon Sep  8 20:15:31 2025
Plotname: AC Analysis
Flags: complex forward log nocompression
No. Variables: 3
No. Points:         1801
Offset:    0.0000000000000000e+00
Command: Linear Technology Corporation LTspice
Variables:
	0	frequency	frequency
	1	V(out)	voltage
	2	V(g)	voltage
Values:
0		1.000000000000000e+00,0.000000000000000e+00
	-3.793679462795641e-02,4.416031652596861e-10
	1.000000000000000e+00,0.000000000000000e+00
1		1.011579454259899e+00,0.000000000000000e+00
	-3.793679462795641e-02,4.467166889128371e-10
	1.000000000000000e+00,0.000000000000000e+00
2		1.023292992280754e+00,0.000000000000000e+00
	-3.793679462795641e-02,4.518894243792366e-10
	1.000000000000000e+00,0.000000000000000e+00
3		1.035142166679344e+00,0.000000000000000e+00
	-3.793679462795641e-02,4.571220572993679e-10
	1.000000000000000e+00,0.000000000000000e+00
4		1.047128548050900e+00,0.000000000000000e+00
	-3.793679462795641e-02,4.624152812530567e-10
	1.000000000000000e+00,0.000000000000000e+00
5		1.059253725177289e+00,0.000000000000000e+00
	-3.793679462795641e-02,4.677697978514046e-10
	1.000000000000000e+00,0.000000000000000e+00
6		1.071519305237607e+00,0.000000000000000e+00
	-3.793679462795641e-02,4.731863168297869e-10
	1.000000000000000e+00,0.000000000000000e+00
7		1.083926914021204e+00,0.000000000000000e+00
	-3.793679462795641e-02,4.786655561419273e-10
	1.000000000000000e+00,0.000000000000000e+00
8		1.096478196143186e+00,0.000000000000000e+00
	-3.793679462795641e-02,4.842082420550617e-10
	1.000000000000000e+00,0.000000000000000e+00
9		1.109174815262402e+00,0.000000000000000e+00
	-3.793679462795641e-02,4.898151092462042e-10
	1.000000000000000e+00,0.000000000000000e+00
10		1.122018454301964e+00,0.000000000000000e+00
	-3.793679462795641e-02,4.954869008995277e-10
	1.000000000000000e+00,0.000000000000000e+00
11		1.135010815672316e+00,0.000000000000000e+00
	-3.793679462795641e-02,5.012243688048729e-10
	1.000000000000000e+00,0.000000000000000e+00
12		1.148153621496884e+00,0.000000000000000e+00
	-3.793679462795641e-02,5.070282734573954e-10
	1.000000000000000e+00,0.000000000000000e+00
13		1.161448613840344e+00,0.000000000000000e+00
	-3.793679462795641e-02,5.128993841583706e-10
	1.000000000000000e+00,0.000000000000000e+00
14		1.174897554939531e+00,0.000000000000000e+00
	-3.793679462795641e-02,5.188384791171626e-10
	1.000000000000000e+00,0.000000000000000e+00
15		1.188502227437020e+00,0.000000000000000e+00
	-3.793679462795641e-02,5.248463455543752e-10
	1.000000000000000e+00,0.000000000000000e+00
16		1.202264434617414e+00,0.000000000000000e+00
	-3.793679462795641e-02,5.309237798061970e-10
	1.000000000000000e+00,0.000000000000000e+00
17		1.216186000646369e+00,0.000000000000000e+00
	-3.793679462795641e-02,5.370715874299554e-10
	1.000000000000000e+00,0.000000000000000e+00
18		1.230268770812383e+00,0.000000000000000e+00
	-3.793679462795641e-02,5.432905833108916e-10
	1.000000000000000e+00,0.000000000000000e+00
19		1.244514611771387e+00,0.000000000000000e+00
	-3.793679462795641e-02,5.495815917701737e-10
	1.000000000000000e+00,0.000000000000000e+00
20		1.258925411794169e+00,0.000000000000000e+00
	-3.793679462795641e-02,5.559454466741588e-10
	1.000000000000000e+00,0.000000000000000e+00
21		1.273503081016663e+00,0.000000000000000e+00
	-3.793679462795641e-02,5.623829915449211e-10
	1.000000000000000e+00,0.000000000000000e+00
22		1.288249551693136e+00,0.000000000000000e+00
	-3.793679462795641e-02,5.688950796720603e-10
	1.000000000000000e+00,0.000000000000000e+00
23		1.303166778452301e+00,0.000000000000000e+00
	-3.793679462795641e-02,5.754825742258044e-10
	1.000000000000000e+00,0.000000000000000e+00
24		1.318256738556409e+00,0.000000000000000e+00
	-3.793679462795641e-02,5.821463483714208e-10
	1.000000000000000e+00,0.000000000000000e+00
25		1.333521432163326e+00,0.000000000000000e+00
	-3.793679462795641e-02,5.888872853849547e-10
	1.000000000000000e+00,0.000000000000000e+00
26		1.348962882591656e+00,0.000000000000000e+00
	-3.793679462795641e-02,5.957062787703055e-10
	1.000000000000000e+00,0.000000000000000e+00
27		1.364583136588927e+00,0.000000000000000e+00
	-3.793679462795641e-02,6.026042323776606e-10
	1.000000000000000e+00,0.000000000000000e+00
28		1.380384264602887e+00,0.000000000000000e+00
	-3.793679462795641e-02,6.095820605232992e-10
	1.000000000000000e+00,0.000000000000000e+00
29		1.396368361055940e+00,0.000000000000000e+00
	-3.793679462795641e-02,6.166406881107834e-10
	1.000000000000000e+00,0.000000000000000e+00
30		1.412537544622757e+00,0.000000000000000e+00
	-3.793679462795641e-02,6.237810507535546e-10
	1.000000000000000e+00,0.000000000000000e+00
31		1.428893958511106e+00,0.000000000000000e+00
	-3.793679462795641e-02,6.310040948989469e-10
	1.000000000000000e+00,0.000000000000000e+00
32		1.445439770745931e+00,0.000000000000000e+00
	-3.793679462795641e-02,6.383107779536380e-10
	1.000000000000000e+00,0.000000000000000e+00
33		1.462177174456721e+00,0.000000000000000e+00
	-3.793679462795641e-02,6.457020684105525e-10
	1.000000000000000e+00,0.000000000000000e+00
34		1.479108388168211e+00,0.000000000000000e+00
	-3.793679462795641e-02,6.531789459772342e-10
	1.000000000000000e+00,0.000000000000000e+00
35		1.496235656094437e+00,0.000000000000000e+00
	-3.793679462795641e-02,6.607424017057064e-10
	1.000000000000000e+00,0.000000000000000e+00
36		1.513561248436212e+00,0.000000000000000e+00
	-3.793679462795641e-02,6.683934381238333e-10
	1.000000000000000e+00,0.000000000000000e+00
37		1.531087461682034e+00,0.000000000000000e+00
	-3.793679462795641e-02,6.761330693682046e-10
	1.000000000000000e+00,0.000000000000000e+00
38		1.548816618912485e+00,0.000000000000000e+00
	-3.793679462795641e-02,6.839623213185585e-10
	1.000000000000000e+00,0.000000000000000e+00
39		1.566751070108153e+00,0.000000000000000e+00
	-3.793679462795641e-02,6.918822317337608e-10
	1.000000000000000e+00,0.000000000000000e+00
40		1.584893192461118e+00,0.000000000000000e+00
	-3.793679462795641e-02,6.998938503893585e-10
	1.000000000000000e+00,0.000000000000000e+00
41		1.603245390690046e+00,0.000000000000000e+00
	-3.793679462795641e-02,7.079982392167262e-10
	1.000000000000000e+00,0.000000000000000e+00
42		1.621810097358934e+00,0.000000000000000e+00
	-3.793679462795641e-02,7.161964724438250e-10
	1.000000000000000e+00,0.000000000000000e+00
43		1.640589773199544e+00,0.000000000000000e+00
	-3.793679462795641e-02,7.244896367375890e-10
	1.000000000000000e+00,0.000000000000000e+00
44		1.659586907437565e+00,0.000000000000000e+00
	-3.793679462795641e-02,7.328788313479624e-10
	1.000000000000000e+00,0.000000000000000e+00
45		1.678804018122565e+00,0.000000000000000e+00
	-3.793679462795641e-02,7.413651682536042e-10
	1.000000000000000e+00,0.000000000000000e+00
46		1.698243652461749e+00,0.000000000000000e+00
	-3.793679462795641e-02,7.499497723092789e-10
	1.000000000000000e+00,0.000000000000000e+00
47		1.717908387157593e+00,0.000000000000000e+00
	-3.793679462795641e-02,7.586337813949555e-10
	1.000000000000000e+00,0.000000000000000e+00
48		1.737800828749381e+00,0.000000000000000e+00
	-3.793679462795641e-02,7.674183465666323e-10
	1.000000000000000e+00,0.000000000000000e+00
49		1.757923613958698e+00,0.000000000000000e+00
	-3.793679462795641e-02,7.763046322089076e-10
	1.000000000000000e+00,0.000000000000000e+00
50		1.778279410038929e+00,0.000000000000000e+00
	-3.793679462795641e-02,7.852938161893180e-10
	1.000000000000000e+00,0.000000000000000e+00
51		1.798870915128794e+00,0.000000000000000e+00
	-3.793679462795641e-02,7.943870900144635e-10
	1.000000000000000e+00,0.000000000000000e+00
52		1.819700858609990e+00,0.000000000000000e+00
	-3.793679462795641e-02,8.035856589879401e-10
	1.000000000000000e+00,0.000000000000000e+00
53		1.840772001468962e+00,0.000000000000000e+00
	-3.793679462795641e-02,8.128907423701011e-10
	1.000000000000000e+00,0.000000000000000e+00
54		1.862087136662874e+00,0.000000000000000e+00
	-3.793679462795641e-02,8.223035735396708e-10
	1.000000000000000e+00,0.000000000000000e+00
55		1.883649089489807e+00,0.000000000000000e+00
	-3.793679462795641e-02,8.318254001572247e-10
	1.000000000000000e+00,0.000000000000000e+00
56		1.905460717963254e+00,0.000000000000000e+00
	-3.793679462795641e-02,8.414574843305670e-10
	1.000000000000000e+00,0.000000000000000e+00
57		1.927524913190943e+00,0.000000000000000e+00
	-3.793679462795641e-02,8.512011027820223e-10
	1.000000000000000e+00,0.000000000000000e+00
58		1.949844599758053e+00,0.000000000000000e+00
	-3.793679462795641e-02,8.610575470176619e-10
	1.000000000000000e+00,0.000000000000000e+00
59		1.972422736114861e+00,0.000000000000000e+00
	-3.793679462795641e-02,8.710281234984933e-10
	1.000000000000000e+00,0.000000000000000e+00
60		1.995262314968888e+00,0.000000000000000e+00
	-3.793679462795641e-02,8.811141538136295e-10
	1.000000000000000e+00,0.000000000000000e+00
61		2.018366363681569e+00,0.000000000000000e+00
	-3.793679462795641e-02,8.913169748554637e-10
	1.000000000000000e+00,0.000000000000000e+00
62		2.041737944669538e+00,0.000000000000000e+00
	-3.793679462795641e-02,9.016379389968737e-10
	1.000000000000000e+00,0.000000000000000e+00
63		2.065380155810538e+00,0.000000000000000e+00
	-3.793679462795641e-02,9.120784142704772e-10
	1.000000000000000e+00,0.000000000000000e+00
64		2.089296130854049e+00,0.000000000000000e+00
	-3.793679462795641e-02,9.226397845499633e-10
	1.000000000000000e+00,0.000000000000000e+00
65		2.113489039836656e+00,0.000000000000000e+00
	-3.793679462795641e-02,9.333234497335220e-10
	1.000000000000000e+00,0.000000000000000e+00
66		2.137962089502242e+00,0.000000000000000e+00
	-3.793679462795641e-02,9.441308259294021e-10
	1.000000000000000e+00,0.000000000000000e+00
67		2.162718523727030e+00,0.000000000000000e+00
	-3.793679462795641e-02,9.550633456436120e-10
	1.000000000000000e+00,0.000000000000000e+00
68		2.187761623949563e+00,0.000000000000000e+00
	-3.793679462795641e-02,9.661224579697981e-10
	1.000000000000000e+00,0.000000000000000e+00
69		2.213094709605648e+00,0.000000000000000e+00
	-3.793679462795641e-02,9.773096287813202e-10
	1.000000000000000e+00,0.000000000000000e+00
70		2.238721138568351e+00,0.000000000000000e+00
	-3.793679462795641e-02,9.886263409255518e-10
	1.000000000000000e+00,0.000000000000000e+00
71		2.264644307593071e+00,0.000000000000000e+00
	-3.793679462795641e-02,1.000074094420430e-09
	1.000000000000000e+00,0.000000000000000e+00
72		2.290867652767784e+00,0.000000000000000e+00
	-3.793679462795641e-02,1.011654406653281e-09
	1.000000000000000e+00,0.000000000000000e+00
73		2.317394649968490e+00,0.000000000000000e+00
	-3.793679462795641e-02,1.023368812581947e-09
	1.000000000000000e+00,0.000000000000000e+00
74		2.344228815319934e+00,0.000000000000000e+00
	-3.793679462795641e-02,1.035218864938247e-09
	1.000000000000000e+00,0.000000000000000e+00
75		2.371373705661667e+00,0.000000000000000e+00
	-3.793679462795641e-02,1.047206134433783e-09
	1.000000000000000e+00,0.000000000000000e+00
76		2.398832919019502e+00,0.000000000000000e+00
	-3.793679462795641e-02,1.059332209968144e-09
	1.000000000000000e+00,0.000000000000000e+00
77		2.426610095082428e+00,0.000000000000000e+00
	-3.793679462795641e-02,1.071598698839508e-09
	1.000000000000000e+00,0.000000000000000e+00
78		2.454708915685043e+00,0.000000000000000e+00
	-3.793679462795641e-02,1.084007226957687e-09
	1.000000000000000e+00,0.000000000000000e+00
79		2.483133105295583e+00,0.000000000000000e+00
	-3.793679462795641e-02,1.096559439059643e-09
	1.000000000000000e+00,0.000000000000000e+00
80		2.511886431509593e+00,0.000000000000000e+00
	-3.793679462795641e-02,1.109256998927494e-09
	1.000000000000000e+00,0.000000000000000e+00
81		2.540972705549319e+00,0.000000000000000e+00
	-3.793679462795641e-02,1.122101589609047e-09
	1.000000000000000e+00,0.000000000000000e+00
82		2.570395782768878e+00,0.000000000000000e+00
	-3.793679462795641e-02,1.135094913640885e-09
	1.000000000000000e+00,0.000000000000000e+00
83		2.600159563165286e+00,0.000000000000000e+00
	-3.793679462795641e-02,1.148238693274033e-09
	1.000000000000000e+00,0.000000000000000e+00
84		2.630267991895396e+00,0.000000000000000e+00
	-3.793679462795641e-02,1.161534670702245e-09
	1.000000000000000e+00,0.000000000000000e+00
85		2.660725059798824e+00,0.000000000000000e+00
	-3.793679462795641e-02,1.174984608292929e-09
	1.000000000000000e+00,0.000000000000000e+00
86		2.691534803926931e+00,0.000000000000000e+00
	-3.793679462795641e-02,1.188590288820741e-09
	1.000000000000000e+00,0.000000000000000e+00
87		2.722701308077928e+00,0.000000000000000e+00
	-3.793679462795641e-02,1.202353515703900e-09
	1.000000000000000e+00,0.000000000000000e+00
88		2.754228703338182e+00,0.000000000000000e+00
	-3.793679462795641e-02,1.216276113243222e-09
	1.000000000000000e+00,0.000000000000000e+00
89		2.786121168629787e+00,0.000000000000000e+00
	-3.793679462795641e-02,1.230359926863930e-09
	1.000000000000000e+00,0.000000000000000e+00
90		2.818382931264471e+00,0.000000000000000e+00
	-3.793679462795641e-02,1.244606823360263e-09
	1.000000000000000e+00,0.000000000000000e+00
91		2.851018267503926e+00,0.000000000000000e+00
	-3.793679462795641e-02,1.259018691142920e-09
	1.000000000000000e+00,0.000000000000000e+00
92		2.884031503126623e+00,0.000000000000000e+00
	-3.793679462795641e-02,1.273597440489367e-09
	1.000000000000000e+00,0.000000000000000e+00
93		2.917427014001185e+00,0.000000000000000e+00
	-3.793679462795641e-02,1.288345003797038e-09
	1.000000000000000e+00,0.000000000000000e+00
94		2.951209226666404e+00,0.000000000000000e+00
	-3.793679462795641e-02,1.303263335839474e-09
	1.000000000000000e+00,0.000000000000000e+00
95		2.985382618917978e+00,0.000000000000000e+00
	-3.793679462795641e-02,1.318354414025431e-09
	1.000000000000000e+00,0.000000000000000e+00
96		3.019951720402035e+00,0.000000000000000e+00
	-3.793679462795641e-02,1.333620238660973e-09
	1.000000000000000e+00,0.000000000000000e+00
97		3.054921113215533e+00,0.000000000000000e+00
	-3.793679462795641e-02,1.349062833214623e-09
	1.000000000000000e+00,0.000000000000000e+00
98		3.090295432513610e+00,0.000000000000000e+00
	-3.793679462795641e-02,1.364684244585561e-09
	1.000000000000000e+00,0.000000000000000e+00
99		3.126079367123975e+00,0.000000000000000e+00
	-3.793679462795641e-02,1.380486543374944e-09
	1.000000000000000e+00,0.000000000000000e+00
100		3.162277660168400e+00,0.000000000000000e+00
	-3.793679462795641e-02,1.396471824160360e-09
	1.000000000000000e+00,0.000000000000000e+00
101		3.198895109691419e+00,0.000000000000000e+00
	-3.793679462795641e-02,1.412642205773462e-09
	1.000000000000000e+00,0.000000000000000e+00
102		3.235936569296304e+00,0.000000000000000e+00
	-3.793679462795641e-02,1.428999831580818e-09
	1.000000000000000e+00,0.000000000000000e+00
103		3.273406948788404e+00,0.000000000000000e+00
	-3.793679462795641e-02,1.445546869768010e-09
	1.000000000000000e+00,0.000000000000000e+00
104		3.311311214825934e+00,0.000000000000000e+00
	-3.793679462795641e-02,1.462285513627029e-09
	1.000000000000000e+00,0.000000000000000e+00
105		3.349654391578300e+00,0.000000000000000e+00
	-3.793679462795641e-02,1.479217981846985e-09
	1.000000000000000e+00,0.000000000000000e+00
106		3.388441561392050e+00,0.000000000000000e+00
	-3.793679462795641e-02,1.496346518808202e-09
	1.000000000000000e+00,0.000000000000000e+00
107		3.427677865464528e+00,0.000000000000000e+00
	-3.793679462795641e-02,1.513673394879700e-09
	1.000000000000000e+00,0.000000000000000e+00
108		3.467368504525342e+00,0.000000000000000e+00
	-3.793679462795641e-02,1.531200906720135e-09
	1.000000000000000e+00,0.000000000000000e+00
109		3.507518739525706e+00,0.000000000000000e+00
	-3.793679462795641e-02,1.548931377582216e-09
	1.000000000000000e+00,0.000000000000000e+00
110		3.548133892335781e+00,0.000000000000000e+00
	-3.793679462795641e-02,1.566867157620651e-09
	1.000000000000000e+00,0.000000000000000e+00
111		3.589219346450079e+00,0.000000000000000e+00
	-3.793679462795641e-02,1.585010624203657e-09
	1.000000000000000e+00,0.000000000000000e+00
112		3.630780547701041e+00,0.000000000000000e+00
	-3.793679462795641e-02,1.603364182228076e-09
	1.000000000000000e+00,0.000000000000000e+00
113		3.672823004980875e+00,0.000000000000000e+00
	-3.793679462795641e-02,1.621930264438146e-09
	1.000000000000000e+00,0.000000000000000e+00
114		3.715352290971754e+00,0.000000000000000e+00
	-3.793679462795641e-02,1.640711331747953e-09
	1.000000000000000e+00,0.000000000000000e+00
115		3.758374042884471e+00,0.000000000000000e+00
	-3.793679462795641e-02,1.659709873567626e-09
	1.000000000000000e+00,0.000000000000000e+00
116		3.801893963205642e+00,0.000000000000000e+00
	-3.793679462795641e-02,1.678928408133304e-09
	1.000000000000000e+00,0.000000000000000e+00
117		3.845917820453566e+00,0.000000000000000e+00
	-3.793679462795641e-02,1.698369482840928e-09
	1.000000000000000e+00,0.000000000000000e+00
118		3.890451449942837e+00,0.000000000000000e+00
	-3.793679462795641e-02,1.718035674583892e-09
	1.000000000000000e+00,0.000000000000000e+00
119		3.935500754557806e+00,0.000000000000000e+00
	-3.793679462795641e-02,1.737929590094610e-09
	1.000000000000000e+00,0.000000000000000e+00
120		3.981071705535005e+00,0.000000000000000e+00
	-3.793679462795641e-02,1.758053866290035e-09
	1.000000000000000e+00,0.000000000000000e+00
121		4.027170343254624e+00,0.000000000000000e+00
	-3.793679462795641e-02,1.778411170621178e-09
	1.000000000000000e+00,0.000000000000000e+00
122		4.073802778041161e+00,0.000000000000000e+00
	-3.793679462795641e-02,1.799004201426679e-09
	1.000000000000000e+00,0.000000000000000e+00
123		4.120975190973336e+00,0.000000000000000e+00
	-3.793679462795641e-02,1.819835688290465e-09
	1.000000000000000e+00,0.000000000000000e+00
124		4.168693834703389e+00,0.000000000000000e+00
	-3.793679462795641e-02,1.840908392403555e-09
	1.000000000000000e+00,0.000000000000000e+00
125		4.216965034285859e+00,0.000000000000000e+00
	-3.793679462795641e-02,1.862225106930056e-09
	1.000000000000000e+00,0.000000000000000e+00
126		4.265795188015963e+00,0.000000000000000e+00
	-3.793679462795641e-02,1.883788657377387e-09
	1.000000000000000e+00,0.000000000000000e+00
127		4.315190768277690e+00,0.000000000000000e+00
	-3.793679462795641e-02,1.905601901970804e-09
	1.000000000000000e+00,0.000000000000000e+00
128		4.365158322401698e+00,0.000000000000000e+00
	-3.793679462795641e-02,1.927667732032251e-09
	1.000000000000000e+00,0.000000000000000e+00
129		4.415704473533165e+00,0.000000000000000e+00
	-3.793679462795640e-02,1.949989072363601e-09
	1.000000000000000e+00,0.000000000000000e+00
130		4.466835921509672e+00,0.000000000000000e+00
	-3.793679462795640e-02,1.972568881634338e-09
	1.000000000000000e+00,0.000000000000000e+00
131		4.518559443749265e+00,0.000000000000000e+00
	-3.793679462795640e-02,1.995410152773722e-09
	1.000000000000000e+00,0.000000000000000e+00
132		4.570881896148792e+00,0.000000000000000e+00
	-3.793679462795640e-02,2.018515913367503e-09
	1.000000000000000e+00,0.000000000000000e+00
133		4.623810213992646e+00,0.000000000000000e+00
	-3.793679462795640e-02,2.041889226059219e-09
	1.000000000000000e+00,0.000000000000000e+00
134		4.677351412872025e+00,0.000000000000000e+00
	-3.793679462795640e-02,2.065533188956151e-09
	1.000000000000000e+00,0.000000000000000e+00
135		4.731512589614849e+00,0.000000000000000e+00
	-3.793679462795640e-02,2.089450936039971e-09
	1.000000000000000e+00,0.000000000000000e+00
136		4.786300923226428e+00,0.000000000000000e+00
	-3.793679462795640e-02,2.113645637582149e-09
	1.000000000000000e+00,0.000000000000000e+00
137		4.841723675841039e+00,0.000000000000000e+00
	-3.793679462795640e-02,2.138120500564165e-09
	1.000000000000000e+00,0.000000000000000e+00
138		4.897788193684509e+00,0.000000000000000e+00
	-3.793679462795640e-02,2.162878769102600e-09
	1.000000000000000e+00,0.000000000000000e+00
139		4.954501908047950e+00,0.000000000000000e+00
	-3.793679462795640e-02,2.187923724879129e-09
	1.000000000000000e+00,0.000000000000000e+00
140		5.011872336272772e+00,0.000000000000000e+00
	-3.793679462795640e-02,2.213258687575514e-09
	1.000000000000000e+00,0.000000000000000e+00
141		5.069907082747093e+00,0.000000000000000e+00
	-3.793679462795640e-02,2.238887015313618e-09
	1.000000000000000e+00,0.000000000000000e+00
142		5.128613839913699e+00,0.000000000000000e+00
	-3.793679462795640e-02,2.264812105100523e-09
	1.000000000000000e+00,0.000000000000000e+00
143		5.188000389289662e+00,0.000000000000000e+00
	-3.793679462795640e-02,2.291037393278799e-09
	1.000000000000000e+00,0.000000000000000e+00
144		5.248074602497778e+00,0.000000000000000e+00
	-3.793679462795640e-02,2.317566355981988e-09
	1.000000000000000e+00,0.000000000000000e+00
145		5.308844442309936e+00,0.000000000000000e+00
	-3.793679462795640e-02,2.344402509595361e-09
	1.000000000000000e+00,0.000000000000000e+00
146		5.370317963702581e+00,0.000000000000000e+00
	-3.793679462795640e-02,2.371549411222012e-09
	1.000000000000000e+00,0.000000000000000e+00
147		5.432503314924387e+00,0.000000000000000e+00
	-3.793679462795640e-02,2.399010659154347e-09
	1.000000000000000e+00,0.000000000000000e+00
148		5.495408738576301e+00,0.000000000000000e+00
	-3.793679462795640e-02,2.426789893351034e-09
	1.000000000000000e+00,0.000000000000000e+00
149		5.559042572704092e+00,0.000000000000000e+00
	-3.793679462795640e-02,2.454890795919476e-09
	1.000000000000000e+00,0.000000000000000e+00
150		5.623413251903548e+00,0.000000000000000e+00
	-3.793679462795640e-02,2.483317091603871e-09
	1.000000000000000e+00,0.000000000000000e+00
151		5.688529308438473e+00,0.000000000000000e+00
	-3.793679462795640e-02,2.512072548278923e-09
	1.000000000000000e+00,0.000000000000000e+00
152		5.754399373371629e+00,0.000000000000000e+00
	-3.793679462795640e-02,2.541160977449266e-09
	1.000000000000000e+00,0.000000000000000e+00
153		5.821032177708775e+00,0.000000000000000e+00
	-3.793679462795640e-02,2.570586234754678e-09
	1.000000000000000e+00,0.000000000000000e+00
154		5.888436553555951e+00,0.000000000000000e+00
	-3.793679462795640e-02,2.600352220481145e-09
	1.000000000000000e+00,0.000000000000000e+00
155		5.956621435290167e+00,0.000000000000000e+00
	-3.793679462795640e-02,2.630462880077832e-09
	1.000000000000000e+00,0.000000000000000e+00
156		6.025595860743641e+00,0.000000000000000e+00
	-3.793679462795640e-02,2.660922204680055e-09
	1.000000000000000e+00,0.000000000000000e+00
157		6.095368972401756e+00,0.000000000000000e+00
	-3.793679462795640e-02,2.691734231638296e-09
	1.000000000000000e+00,0.000000000000000e+00
158		6.165950018614887e+00,0.000000000000000e+00
	-3.793679462795640e-02,2.722903045053355e-09
	1.000000000000000e+00,0.000000000000000e+00
159		6.237348354824259e+00,0.000000000000000e+00
	-3.793679462795640e-02,2.754432776317688e-09
	1.000000000000000e+00,0.000000000000000e+00
160		6.309573444802000e+00,0.000000000000000e+00
	-3.793679462795640e-02,2.786327604663025e-09
	1.000000000000000e+00,0.000000000000000e+00
161		6.382634861905555e+00,0.000000000000000e+00
	-3.793679462795640e-02,2.818591757714313e-09
	1.000000000000000e+00,0.000000000000000e+00
162		6.456542290346625e+00,0.000000000000000e+00
	-3.793679462795640e-02,2.851229512050093e-09
	1.000000000000000e+00,0.000000000000000e+00
163		6.531305526474794e+00,0.000000000000000e+00
	-3.793679462795640e-02,2.884245193769350e-09
	1.000000000000000e+00,0.000000000000000e+00
164		6.606934480076032e+00,0.000000000000000e+00
	-3.793679462795640e-02,2.917643179064934e-09
	1.000000000000000e+00,0.000000000000000e+00
165		6.683439175686219e+00,0.000000000000000e+00
	-3.793679462795640e-02,2.951427894803622e-09
	1.000000000000000e+00,0.000000000000000e+00
166		6.760829753919892e+00,0.000000000000000e+00
	-3.793679462795640e-02,2.985603819112889e-09
	1.000000000000000e+00,0.000000000000000e+00
167		6.839116472814369e+00,0.000000000000000e+00
	-3.793679462795640e-02,3.020175481974485e-09
	1.000000000000000e+00,0.000000000000000e+00
168		6.918309709189442e+00,0.000000000000000e+00
	-3.793679462795640e-02,3.055147465824876e-09
	1.000000000000000e+00,0.000000000000000e+00
169		6.998419960022813e+00,0.000000000000000e+00
	-3.793679462795640e-02,3.090524406162640e-09
	1.000000000000000e+00,0.000000000000000e+00
170		7.079457843841459e+00,0.000000000000000e+00
	-3.793679462795640e-02,3.126310992162900e-09
	1.000000000000000e+00,0.000000000000000e+00
171		7.161434102129101e+00,0.000000000000000e+00
	-3.793679462795640e-02,3.162511967298869e-09
	1.000000000000000e+00,0.000000000000000e+00
172		7.244359600749983e+00,0.000000000000000e+00
	-3.793679462795640e-02,3.199132129970588e-09
	1.000000000000000e+00,0.000000000000000e+00
173		7.328245331389125e+00,0.000000000000000e+00
	-3.793679462795640e-02,3.236176334140955e-09
	1.000000000000000e+00,0.000000000000000e+00
174		7.413102413009261e+00,0.000000000000000e+00
	-3.793679462795640e-02,3.273649489979106e-09
	1.000000000000000e+00,0.000000000000000e+00
175		7.498942093324645e+00,0.000000000000000e+00
	-3.793679462795640e-02,3.311556564511259e-09
	1.000000000000000e+00,0.000000000000000e+00
176		7.585775750291926e+00,0.000000000000000e+00
	-3.793679462795639e-02,3.349902582279085e-09
	1.000000000000000e+00,0.000000000000000e+00
177		7.673614893618280e+00,0.000000000000000e+00
	-3.793679462795639e-02,3.388692626005702e-09
	1.000000000000000e+00,0.000000000000000e+00
178		7.762471166287009e+00,0.000000000000000e+00
	-3.793679462795639e-02,3.427931837269390e-09
	1.000000000000000e+00,0.000000000000000e+00
179		7.852356346100811e+00,0.000000000000000e+00
	-3.793679462795639e-02,3.467625417185101e-09
	1.000000000000000e+00,0.000000000000000e+00
180		7.943282347242909e+00,0.000000000000000e+00
	-3.793679462795639e-02,3.507778627093858e-09
	1.000000000000000e+00,0.000000000000000e+00
181		8.035261221856269e+00,0.000000000000000e+00
	-3.793679462795639e-02,3.548396789260141e-09
	1.000000000000000e+00,0.000000000000000e+00
182		8.128305161641091e+00,0.000000000000000e+00
	-3.793679462795639e-02,3.589485287577350e-09
	1.000000000000000e+00,0.000000000000000e+00
183		8.222426499470812e+00,0.000000000000000e+00
	-3.793679462795639e-02,3.631049568281432e-09
	1.000000000000000e+00,0.000000000000000e+00
184		8.317637711026812e+00,0.000000000000000e+00
	-3.793679462795639e-02,3.673095140672771e-09
	1.000000000000000e+00,0.000000000000000e+00
185		8.413951416452054e+00,0.000000000000000e+00
	-3.793679462795639e-02,3.715627577846446e-09
	1.000000000000000e+00,0.000000000000000e+00
186		8.511380382023869e+00,0.000000000000000e+00
	-3.793679462795639e-02,3.758652517430937e-09
	1.000000000000000e+00,0.000000000000000e+00
187		8.609937521846113e+00,0.000000000000000e+00
	-3.793679462795639e-02,3.802175662335382e-09
	1.000000000000000e+00,0.000000000000000e+00
188		8.709635899560915e+00,0.000000000000000e+00
	-3.793679462795639e-02,3.846202781505493e-09
	1.000000000000000e+00,0.000000000000000e+00
189		8.810488730080252e+00,0.000000000000000e+00
	-3.793679462795639e-02,3.890739710688231e-09
	1.000000000000000e+00,0.000000000000000e+00
190		8.912509381337568e+00,0.000000000000000e+00
	-3.793679462795639e-02,3.935792353205316e-09
	1.000000000000000e+00,0.000000000000000e+00
191		9.015711376059683e+00,0.000000000000000e+00
	-3.793679462795639e-02,3.981366680735715e-09
	1.000000000000000e+00,0.000000000000000e+00
192		9.120108393559214e+00,0.000000000000000e+00
	-3.793679462795639e-02,4.027468734107180e-09
	1.000000000000000e+00,0.000000000000000e+00
193		9.225714271547750e+00,0.000000000000000e+00
	-3.793679462795639e-02,4.074104624096946e-09
	1.000000000000000e+00,0.000000000000000e+00
194		9.332543007970031e+00,0.000000000000000e+00
	-3.793679462795639e-02,4.121280532241717e-09
	1.000000000000000e+00,0.000000000000000e+00
195		9.440608762859357e+00,0.000000000000000e+00
	-3.793679462795639e-02,4.169002711657022e-09
	1.000000000000000e+00,0.000000000000000e+00
196		9.549925860214485e+00,0.000000000000000e+00
	-3.793679462795639e-02,4.217277487866047e-09
	1.000000000000000e+00,0.000000000000000e+00
197		9.660508789898261e+00,0.000000000000000e+00
	-3.793679462795639e-02,4.266111259638092e-09
	1.000000000000000e+00,0.000000000000000e+00
198		9.772372209558236e+00,0.000000000000000e+00
	-3.793679462795639e-02,4.315510499836709e-09
	1.000000000000000e+00,0.000000000000000e+00
199		9.885530946569521e+00,0.000000000000000e+00
	-3.793679462795638e-02,4.365481756277681e-09
	1.000000000000000e+00,0.000000000000000e+00
200		1.000000000000014e+01,0.000000000000000e+00
	-3.793679462795638e-02,4.416031652596920e-09
	1.000000000000000e+00,0.000000000000000e+00
201		1.011579454259912e+01,0.000000000000000e+00
	-3.793679462795638e-02,4.467166889128430e-09
	1.000000000000000e+00,0.000000000000000e+00
202		1.023292992280768e+01,0.000000000000000e+00
	-3.793679462795638e-02,4.518894243792427e-09
	1.000000000000000e+00,0.000000000000000e+00
203		1.035142166679358e+01,0.000000000000000e+00
	-3.793679462795638e-02,4.571220572993741e-09
	1.000000000000000e+00,0.000000000000000e+00
204		1.047128548050914e+01,0.000000000000000e+00
	-3.793679462795638e-02,4.624152812530630e-09
	1.000000000000000e+00,0.000000000000000e+00
205		1.059253725177304e+01,0.000000000000000e+00
	-3.793679462795638e-02,4.677697978514110e-09
	1.000000000000000e+00,0.000000000000000e+00
206		1.071519305237621e+01,0.000000000000000e+00
	-3.793679462795638e-02,4.731863168297933e-09
	1.000000000000000e+00,0.000000000000000e+00
207		1.083926914021219e+01,0.000000000000000e+00
	-3.793679462795638e-02,4.786655561419339e-09
	1.000000000000000e+00,0.000000000000000e+00
208		1.096478196143201e+01,0.000000000000000e+00
	-3.793679462795638e-02,4.842082420550684e-09
	1.000000000000000e+00,0.000000000000000e+00
209		1.109174815262417e+01,0.000000000000000e+00
	-3.793679462795638e-02,4.898151092462109e-09
	1.000000000000000e+00,0.000000000000000e+00
210		1.122018454301980e+01,0.000000000000000e+00
	-3.793679462795638e-02,4.954869008995346e-09
	1.000000000000000e+00,0.000000000000000e+00
211		1.135010815672332e+01,0.000000000000000e+00
	-3.793679462795638e-02,5.012243688048798e-09
	1.000000000000000e+00,0.000000000000000e+00
212		1.148153621496900e+01,0.000000000000000e+00