Title: * GA CMOS Amp | W=7.509813122494624e-06 L=2.3132077529724868e-07 Vbias=1.294458970783388
Date: Sat Sep  6 22:02:49 2025
Plotname: AC Analysis
Flags: complex forward log
No. Variables: 13
No. Points:          901
Offset:    0.0000000000000000e+00
Command: Linear Technology Corporation LTspice
Variables:
	0	frequency	frequency
	1	V(out)	voltage
	2	V(g)	voltage
	3	V(vdd)	voltage
	4	V(m1#dbody)	voltage
	5	V(m1#sbody)	voltage
	6	Id(M1)	device_current
	7	Ig(M1)	device_current
	8	Ib(M1)	device_current
	9	Is(M1)	device_current
	10	I(Rload)	device_current
	11	I(Vg)	device_current
	12	I(Vdd)	device_current
Values:
0		1.000000000000000e+00,0.000000000000000e+00
	1.756540143419739e-03,8.498407759083877e-11
	1.000000000000000e+00,0.000000000000000e+00
	0.000000000000000e+00,0.000000000000000e+00
	8.757129009815501e-06,8.189718237358848e-15
	8.757128996157331e-06,7.883945792603720e-15
	-1.756540143419744e-07,-8.498407759083897e-15
	6.844079321275479e-06,4.883283624423217e-13
	-4.670468802391084e-06,-4.226147626358173e-15
	-1.997956504542420e-06,-4.756038070568796e-13
	1.756540143419739e-07,8.498407759083878e-15
	-6.844079321277619e-06,-4.883283624423216e-13
	1.756540143419739e-07,8.498407759083878e-15
1		1.023292992280754e+00,0.000000000000000e+00
	1.756540143419739e-03,8.696361105414922e-11
	1.000000000000000e+00,0.000000000000000e+00
	0.000000000000000e+00,0.000000000000000e+00
	8.757129009815501e-06,8.380481281043197e-15
	8.757128996157331e-06,8.067586481092722e-15
	-1.756540143419744e-07,-8.696361105414860e-15
	6.844079321275479e-06,4.997029912191641e-13
	-4.670468802391084e-06,-4.324587250396261e-15
	-1.997956504542420e-06,-4.866820428633529e-13
	1.756540143419739e-07,8.696361105414922e-15
	-6.844079321277619e-06,-4.997029912191640e-13
	1.756540143419739e-07,8.696361105414922e-15
2		1.047128548050899e+00,0.000000000000000e+00
	1.756540143419739e-03,8.898925377514000e-11
	1.000000000000000e+00,0.000000000000000e+00
	0.000000000000000e+00,0.000000000000000e+00
	8.757129009815501e-06,8.575687766831542e-15
	8.757128996157331e-06,8.255504710721132e-15
	-1.756540143419744e-07,-8.898925377514021e-15
	6.844079321275479e-06,5.113425691363017e-13
	-4.670468802391084e-06,-4.425319827837188e-15
	-1.997956504542420e-06,-4.980183239309505e-13
	1.756540143419739e-07,8.898925377514001e-15
	-6.844079321277619e-06,-5.113425691363016e-13
	1.756540143419739e-07,8.898925377514001e-15
3		1.071519305237606e+00,0.000000000000000e+00
	1.756540143419739e-03,9.106207977639441e-11
	1.000000000000000e+00,0.000000000000000e+00
	0.000000000000000e+00,0.000000000000000e+00
	8.757129009815501e-06,8.775441195786505e-15
	8.757128996157331e-06,8.447800118221688e-15
	-1.756540143419744e-07,-9.106207977639390e-15
	6.844079321275479e-06,5.232532676520145e-13
	-4.670468802391084e-06,-4.528398768426868e-15
	-1.997956504542420e-06,-5.096186609059482e-13
	1.756540143419739e-07,9.106207977639441e-15
	-6.844079321277619e-06,-5.232532676520145e-13
	1.756540143419739e-07,9.106207977639441e-15
4		1.096478196143185e+00,0.000000000000000e+00
	1.756540143419739e-03,9.318318809769534e-11
	1.000000000000000e+00,0.000000000000000e+00
	0.000000000000000e+00,0.000000000000000e+00
	8.757129009815501e-06,8.979847479820169e-15
	8.757128996157331e-06,8.644574661164778e-15
	-1.756540143419744e-07,-9.318318809769548e-15
	6.844079321275479e-06,5.354414019763121e-13
	-4.670468802391084e-06,-4.633878725984011e-15
	-1.997956504542420e-06,-5.214892044405585e-13
	1.756540143419739e-07,9.318318809769534e-15
	-6.844079321277619e-06,-5.354414019763120e-13
	1.756540143419739e-07,9.318318809769534e-15
5		1.122018454301963e+00,0.000000000000000e+00
	1.756540143419739e-03,9.535370337875106e-11
	1.000000000000000e+00,0.000000000000000e+00
	0.000000000000000e+00,0.000000000000000e+00
	8.757129009815501e-06,9.189014997849973e-15
	8.757128996157331e-06,8.845932672017695e-15
	-1.756540143419744e-07,-9.535370337874998e-15
	6.844079321275479e-06,5.479134344193425e-13
	-4.670468802391084e-06,-4.741815627378308e-15
	-1.997956504542420e-06,-5.336362484540892e-13
	1.756540143419739e-07,9.535370337875107e-15
	-6.844079321277619e-06,-5.479134344193425e-13
	1.756540143419739e-07,9.535370337875107e-15
6		1.148153621496882e+00,0.000000000000000e+00
	1.756540143419739e-03,9.757477645549359e-11
	1.000000000000000e+00,0.000000000000000e+00
	0.000000000000000e+00,0.000000000000000e+00
	8.757129009815501e-06,9.403054653262623e-15
	8.757128996157331e-06,9.051980913463069e-15
	-1.756540143419744e-07,-9.757477645549435e-15
	6.844079321275479e-06,5.606759778177939e-13
	-4.670468802391084e-06,-4.852266702183588e-15
	-1.997956504542420e-06,-5.460662334700608e-13
	1.756540143419739e-07,9.757477645549359e-15
	-6.844079321277619e-06,-5.606759778177937e-13
	1.756540143419739e-07,9.757477645549359e-15
7		1.174897554939529e+00,0.000000000000000e+00
	1.756540143419739e-03,9.984758497026773e-11
	1.000000000000000e+00,0.000000000000000e+00
	0.000000000000000e+00,0.000000000000000e+00
	8.757129009815501e-06,9.622079932716582e-15
	8.757128996157331e-06,9.262828635005900e-15
	-1.756540143419744e-07,-9.984758497026736e-15
	6.844079321275479e-06,5.737357990411079e-13
	-4.670468802391084e-06,-4.965290513021713e-15
	-1.997956504542420e-06,-5.587857500310595e-13
	1.756540143419739e-07,9.984758497026774e-15
	-6.844079321277619e-06,-5.737357990411078e-13
	1.756540143419739e-07,9.984758497026774e-15
8		1.202264434617413e+00,0.000000000000000e+00
	1.756540143419739e-03,1.021733339962321e-10
	1.000000000000000e+00,0.000000000000000e+00
	0.000000000000000e+00,0.000000000000000e+00
	8.757129009815501e-06,9.846206966314144e-15
	8.757128996157331e-06,9.478587630899039e-15
	-1.756540143419744e-07,-1.021733339962320e-14
	6.844079321275479e-06,5.870998225793648e-13
	-4.670468802391084e-06,-5.080946986613227e-15
	-1.997956504542420e-06,-5.718015421931284e-13
	1.756540143419739e-07,1.021733339962321e-14
	-6.844079321277619e-06,-5.870998225793647e-13
	1.756540143419739e-07,1.021733339962321e-14
9		1.230268770812381e+00,0.000000000000000e+00
	1.756540143419739e-03,1.045532566763053e-10
	1.000000000000000e+00,0.000000000000000e+00
	0.000000000000000e+00,0.000000000000000e+00
	8.757129009815501e-06,1.007555458917521e-14
	8.757128996157331e-06,9.699372299418024e-15
	-1.756540143419744e-07,-1.045532566763054e-14
	6.844079321275479e-06,6.007751342147381e-13
	-4.670468802391084e-06,-5.199297445551331e-15
	-1.997956504542420e-06,-5.851205111015562e-13
	1.756540143419739e-07,1.045532566763053e-14
	-6.844079321277619e-06,-6.007751342147379e-13
	1.756540143419739e-07,1.045532566763053e-14
10		1.258925411794167e+00,0.000000000000000e+00
	1.756540143419739e-03,1.069886148769941e-10
	1.000000000000000e+00,0.000000000000000e+00
	0.000000000000000e+00,0.000000000000000e+00
	8.757129009815501e-06,1.031024440444519e-14
	8.757128996157331e-06,9.925299703516530e-15
	-1.756540143419744e-07,-1.069886148769945e-14
	6.844079321275479e-06,6.147689847784710e-13
	-4.670468802391084e-06,-5.320404640815903e-15
	-1.997956504542420e-06,-5.987497186499557e-13
	1.756540143419739e-07,1.069886148769941e-14
	-6.844079321277619e-06,-6.147689847784708e-13
	1.756540143419739e-07,1.069886148769941e-14
11		1.288249551693134e+00,0.000000000000000e+00
	1.756540143419739e-03,1.094806998574526e-10
	1.000000000000000e+00,0.000000000000000e+00
	0.000000000000000e+00,0.000000000000000e+00
	8.757129009815501e-06,1.055040084777062e-14
	8.757128996157331e-06,1.015648963289471e-14
	-1.756540143419744e-07,-1.094806998574525e-14
	6.844079321275479e-06,6.290887939953631e-13
	-4.670468802391084e-06,-5.444332785044916e-15
	-1.997956504542420e-06,-6.126963912245729e-13
	1.756540143419739e-07,1.094806998574526e-14
	-6.844079321277619e-06,-6.290887939953629e-13
	1.756540143419739e-07,1.094806998574526e-14
12		1.318256738556407e+00,0.000000000000000e+00
	1.756540143419739e-03,1.120308329541238e-10
	1.000000000000000e+00,0.000000000000000e+00
	0.000000000000000e+00,0.000000000000000e+00
	8.757129009815501e-06,1.079615125327660e-14
	8.757128996157331e-06,1.039306466751329e-14
	-1.756540143419744e-07,-1.120308329541233e-14
	6.844079321275479e-06,6.437421544178058e-13
	-4.670468802391084e-06,-5.571147586580823e-15
	-1.997956504542420e-06,-6.269679235358127e-13
	1.756540143419739e-07,1.120308329541238e-14
	-6.844079321277619e-06,-6.437421544178057e-13
	1.756540143419739e-07,1.120308329541238e-14
13		1.348962882591653e+00,0.000000000000000e+00
	1.756540143419739e-03,1.146403662813306e-10
	1.000000000000000e+00,0.000000000000000e+00
	0.000000000000000e+00,0.000000000000000e+00
	8.757129009815501e-06,1.104762592108102e-14
	8.757128996157331e-06,1.063515024258705e-14
	-1.756540143419744e-07,-1.146403662813310e-14
	6.844079321275479e-06,6.587368354514558e-13
	-4.670468802391084e-06,-5.700916284309994e-15
	-1.997956504542420e-06,-6.415718825390127e-13
	1.756540143419739e-07,1.146403662813306e-14
	-6.844079321277619e-06,-6.587368354514557e-13
	1.756540143419739e-07,1.146403662813306e-14
14		1.380384264602885e+00,0.000000000000000e+00
	1.756540143419739e-03,1.173106834481845e-10
	1.000000000000000e+00,0.000000000000000e+00
	0.000000000000000e+00,0.000000000000000e+00
	8.757129009815501e-06,1.130495818638143e-14
	8.757128996157331e-06,1.088287471509230e-14
	-1.756540143419744e-07,-1.173106834481847e-14
	6.844079321275479e-06,6.740807874746752e-13
	-4.670468802391084e-06,-5.833707683313654e-15
	-1.997956504542420e-06,-6.565160114465430e-13
	1.756540143419739e-07,1.173106834481845e-14
	-6.844079321277619e-06,-6.740807874746749e-13
	1.756540143419739e-07,1.173106834481845e-14
15		1.412537544622754e+00,0.000000000000000e+00
	1.756540143419739e-03,1.200432002921930e-10
	1.000000000000000e+00,0.000000000000000e+00
	0.000000000000000e+00,0.000000000000000e+00
	8.757129009815501e-06,1.156828449015106e-14
	8.757128996157331e-06,1.113636943182335e-14
	-1.756540143419744e-07,-1.200432002921929e-14
	6.844079321275479e-06,6.897821460539275e-13
	-4.670468802391084e-06,-5.969592191349252e-15
	-1.997956504542420e-06,-6.718082338333589e-13
	1.756540143419739e-07,1.200432002921930e-14
	-6.844079321277619e-06,-6.897821460539273e-13
	1.756540143419739e-07,1.200432002921930e-14
16		1.445439770745927e+00,0.000000000000000e+00
	1.756540143419739e-03,1.228393656299561e-10
	1.000000000000000e+00,0.000000000000000e+00
	0.000000000000000e+00,0.000000000000000e+00
	8.757129009815501e-06,1.183774445148171e-14
	8.757128996157331e-06,1.139576879903444e-14
	-1.756540143419744e-07,-1.228393656299564e-14
	6.844079321275479e-06,7.058492362573633e-13
	-4.670468802391084e-06,-6.108641856181601e-15
	-1.997956504542420e-06,-6.874566578381860e-13
	1.756540143419739e-07,1.228393656299561e-14
	-6.844079321277619e-06,-7.058492362573633e-13
	1.756540143419739e-07,1.228393656299561e-14
17		1.479108388168207e+00,0.000000000000000e+00
	1.756540143419739e-03,1.257006620253474e-10
	1.000000000000000e+00,0.000000000000000e+00
	0.000000000000000e+00,0.000000000000000e+00
	8.757129009815501e-06,1.211348094161161e-14
	8.757128996157331e-06,1.166121035370360e-14
	-1.756540143419744e-07,-1.257006620253474e-14
	6.844079321275479e-06,7.222905770688824e-13
	-4.670468802391084e-06,-6.250930403783529e-15
	-1.997956504542420e-06,-7.034695804625641e-13
	1.756540143419739e-07,1.257006620253474e-14
	-6.844079321277619e-06,-7.222905770688821e-13
	1.756540143419739e-07,1.257006620253474e-14
18		1.513561248436208e+00,0.000000000000000e+00
	1.756540143419739e-03,1.286286065755895e-10
	1.000000000000000e+00,0.000000000000000e+00
	0.000000000000000e+00,0.000000000000000e+00
	8.757129009815501e-06,1.239564015967763e-14
	8.757128996157331e-06,1.193283483645667e-14
	-1.756540143419744e-07,-1.286286065755893e-14
	6.844079321275479e-06,7.391148859050093e-13
	-4.670468802391084e-06,-6.396533277426389e-15
	-1.997956504542420e-06,-7.198554919700240e-13
	1.756540143419739e-07,1.286286065755895e-14
	-6.844079321277619e-06,-7.391148859050091e-13
	1.756540143419739e-07,1.286286065755895e-14
19		1.548816618912481e+00,0.000000000000000e+00
	1.756540143419739e-03,1.316247517156389e-10
	1.000000000000000e+00,0.000000000000000e+00
	0.000000000000000e+00,0.000000000000000e+00
	8.757129009815501e-06,1.268437171023201e-14
	8.757128996157331e-06,1.221078626618977e-14
	-1.756540143419744e-07,-1.316247517156387e-14
	6.844079321275479e-06,7.563310832369852e-13
	-4.670468802391084e-06,-6.545527677681069e-15
	-1.997956504542420e-06,-7.366230803877403e-13
	1.756540143419739e-07,1.316247517156389e-14
	-6.844079321277619e-06,-7.563310832369850e-13
	1.756540143419739e-07,1.316247517156389e-14
20		1.584893192461113e+00,0.000000000000000e+00
	1.756540143419739e-03,1.346906860413074e-10
	1.000000000000000e+00,0.000000000000000e+00
	0.000000000000000e+00,0.000000000000000e+00
	8.757129009815501e-06,1.297982868256466e-14
	8.757128996157331e-06,1.249521201643007e-14
	-1.756540143419744e-07,-1.346906860413072e-14
	6.844079321275479e-06,7.739482973205184e-13
	-4.670468802391084e-06,-6.697992603350757e-15
	-1.997956504542420e-06,-7.537812361130370e-13
	1.756540143419739e-07,1.346906860413074e-14
	-6.844079321277619e-06,-7.739482973205183e-13
	1.756540143419739e-07,1.346906860413074e-14
21		1.621810097358929e+00,0.000000000000000e+00
	1.756540143419739e-03,1.378280351515570e-10
	1.000000000000000e+00,0.000000000000000e+00
	0.000000000000000e+00,0.000000000000000e+00
	8.757129009815501e-06,1.328216773187315e-14
	8.757128996157331e-06,1.278626289347516e-14
	-1.756540143419744e-07,-1.378280351515578e-14
	6.844079321275479e-06,7.919758690357082e-13
	-4.670468802391084e-06,-6.854008893357155e-15
	-1.997956504542420e-06,-7.713390566271953e-13
	1.756540143419739e-07,1.378280351515570e-14
	-6.844079321277619e-06,-7.919758690357081e-13
	1.756540143419739e-07,1.378280351515570e-14
22		1.659586907437560e+00,0.000000000000000e+00
	1.756540143419739e-03,1.410384625104138e-10
	1.000000000000000e+00,0.000000000000000e+00
	0.000000000000000e+00,0.000000000000000e+00
	8.757129009815501e-06,1.359154916232335e-14
	8.757128996157331e-06,1.308409321635257e-14
	-1.756540143419744e-07,-1.410384625104138e-14
	6.844079321275479e-06,8.104233568397004e-13
	-4.670468802391084e-06,-7.013659269602343e-15
	-1.997956504542420e-06,-7.893058513190567e-13
	1.756540143419739e-07,1.410384625104138e-14
	-6.844079321277619e-06,-8.104233568397004e-13
	1.756540143419739e-07,1.410384625104138e-14
23		1.698243652461743e+00,0.000000000000000e+00
	1.756540143419739e-03,1.443236703289583e-10
	1.000000000000000e+00,0.000000000000000e+00
	0.000000000000000e+00,0.000000000000000e+00
	8.757129009815501e-06,1.390813701204484e-14
	8.757128996157331e-06,1.338886089864174e-14
	-1.756540143419744e-07,-1.443236703289576e-14
	6.844079321275479e-06,8.293005418347104e-13
	-4.670468802391084e-06,-7.177028380829031e-15
	-1.997956504542420e-06,-8.076911464209856e-13
	1.756540143419739e-07,1.443236703289583e-14
	-6.844079321277619e-06,-8.293005418347104e-13
	1.756540143419739e-07,1.443236703289583e-14
24		1.737800828749374e+00,0.000000000000000e+00
	1.756540143419739e-03,1.476854004678608e-10
	1.000000000000000e+00,0.000000000000000e+00
	0.000000000000000e+00,0.000000000000000e+00
	8.757129009815501e-06,1.423209914010607e-14
	8.757128996157331e-06,1.370072753220189e-14
	-1.756540143419744e-07,-1.476854004678617e-14
	6.844079321275479e-06,8.486174329540916e-13
	-4.670468802391084e-06,-7.344202847502432e-15
	-1.997956504542420e-06,-8.265046900598029e-13
	1.756540143419739e-07,1.476854004678608e-14
	-6.844079321277619e-06,-8.486174329540912e-13
	1.756540143419739e-07,1.476854004678608e-14
25		1.778279410038922e+00,0.000000000000000e+00
	1.756540143419739e-03,1.511254353609388e-10
	1.000000000000000e+00,0.000000000000000e+00
	0.000000000000000e+00,0.000000000000000e+00
	8.757129009815501e-06,1.456360731551549e-14
	8.757128996157331e-06,1.401985847285018e-14
	-1.756540143419744e-07,-1.511254353609382e-14
	6.844079321275479e-06,8.683842722692045e-13
	-4.670468802391084e-06,-7.515271307737601e-15
	-1.997956504542420e-06,-8.457564574253731e-13
	1.756540143419739e-07,1.511254353609388e-14
	-6.844079321277619e-06,-8.683842722692043e-13
	1.756540143419739e-07,1.511254353609388e-14
26		1.819700858609982e+00,0.000000000000000e+00
	1.756540143419739e-03,1.546455989602267e-10
	1.000000000000000e+00,0.000000000000000e+00
	0.000000000000000e+00,0.000000000000000e+00
	8.757129009815501e-06,1.490283730829572e-14
	8.757128996157331e-06,1.434642292803555e-14
	-1.756540143419744e-07,-1.546455989602258e-14
	6.844079321275479e-06,8.886115404198992e-13
	-4.670468802391084e-06,-7.690324464296504e-15
	-1.997956504542420e-06,-8.654566560595802e-13
	1.756540143419739e-07,1.546455989602267e-14
	-6.844079321277619e-06,-8.886115404198992e-13
	1.756540143419739e-07,1.546455989602267e-14
27		1.862087136662866e+00,0.000000000000000e+00
	1.756540143419739e-03,1.582477577030598e-10
	1.000000000000000e+00,0.000000000000000e+00
	0.000000000000000e+00,0.000000000000000e+00
	8.757129009815501e-06,1.524996898267919e-14
	8.757128996157331e-06,1.468059404655472e-14
	-1.756540143419744e-07,-1.582477577030594e-14
	6.844079321275479e-06,9.093099621714891e-13
	-4.670468802391084e-06,-7.869455132679857e-15
	-1.997956504542420e-06,-8.856157312685033e-13
	1.756540143419739e-07,1.582477577030599e-14
	-6.844079321277619e-06,-9.093099621714888e-13
	1.756540143419739e-07,1.582477577030599e-14
28		1.905460717963246e+00,0.000000000000000e+00
	1.756540143419739e-03,1.619338215016839e-10
	1.000000000000000e+00,0.000000000000000e+00
	0.000000000000000e+00,0.000000000000000e+00
	8.757129009815501e-06,1.560518639247448e-14
	8.757128996157331e-06,1.502254901035800e-14
	-1.756540143419744e-07,-1.619338215016823e-14
	6.844079321275479e-06,9.304905121011621e-13
	-4.670468802391084e-06,-8.052758290339111e-15
	-1.997956504542420e-06,-9.062443716606548e-13
	1.756540143419739e-07,1.619338215016839e-14
	-6.844079321277619e-06,-9.304905121011619e-13
	1.756540143419739e-07,1.619338215016839e-14
29		1.949844599758044e+00,0.000000000000000e+00
	1.756540143419739e-03,1.657057447559156e-10
	1.000000000000000e+00,0.000000000000000e+00
	0.000000000000000e+00,0.000000000000000e+00
	8.757129009815501e-06,1.596867787865411e-14
	8.757128996157331e-06,1.537246912849351e-14
	-1.756540143419744e-07,-1.657057447559155e-14
	6.844079321275479e-06,9.521644204168499e-13
	-4.670468802391084e-06,-8.240331127034756e-15
	-1.997956504542420e-06,-9.273535148142234e-13
	1.756540143419739e-07,1.657057447559156e-14
	-6.844079321277619e-06,-9.521644204168495e-13
	1.756540143419739e-07,1.657057447559156e-14
30		1.995262314968878e+00,0.000000000000000e+00
	1.756540143419739e-03,1.695655273893918e-10
	1.000000000000000e+00,0.000000000000000e+00
	0.000000000000000e+00,0.000000000000000e+00
	8.757129009815501e-06,1.634063616921546e-14
	8.757128996157331e-06,1.573053993323965e-14
	-1.756540143419744e-07,-1.695655273893909e-14
	6.844079321275479e-06,9.743431789116279e-13
	-4.670468802391084e-06,-8.432273096367637e-15
	-1.997956504542420e-06,-9.489543530763210e-13
	1.756540143419739e-07,1.695655273893918e-14
	-6.844079321277619e-06,-9.743431789116279e-13
	1.756540143419739e-07,1.695655273893918e-14
31		2.041737944669527e+00,0.000000000000000e+00
	1.756540143419739e-03,1.735152159099548e-10
	1.000000000000000e+00,0.000000000000000e+00
	0.000000000000000e+00,0.000000000000000e+00
	8.757129009815501e-06,1.672125848136760e-14
	8.757128996157331e-06,1.609695127847669e-14
	-1.756540143419744e-07,-1.735152159099532e-14
	6.844079321275479e-06,9.970385470568216e-13
	-4.670468802391084e-06,-8.628685968510539e-15
	-1.997956504542420e-06,-9.710583394973158e-13
	1.756540143419739e-07,1.735152159099548e-14
	-6.844079321277619e-06,-9.970385470568214e-13
	1.756540143419739e-07,1.735152159099548e-14
32		2.089296130854037e+00,0.000000000000000e+00
	1.756540143419739e-03,1.775569044947388e-10
	1.000000000000000e+00,0.000000000000000e+00
	0.000000000000000e+00,0.000000000000000e+00
	8.757129009815501e-06,1.711074662609859e-14
	8.757128996157331e-06,1.647189744034992e-14
	-1.756540143419744e-07,-1.775569044947388e-14
	6.844079321275479e-06,1.020262558237031e-12
	-4.670468802391084e-06,-8.829673884168103e-15
	-1.997956504542420e-06,-9.936771939033887e-13
	1.756540143419739e-07,1.775569044947388e-14
	-6.844079321277619e-06,-1.020262558237031e-12
	1.756540143419739e-07,1.775569044947388e-14
33		2.137962089502230e+00,0.000000000000000e+00
	1.756540143419739e-03,1.816927361005294e-10
	1.000000000000000e+00,0.000000000000000e+00
	0.000000000000000e+00,0.000000000000000e+00
	8.757129009815501e-06,1.750930711517824e-14
	8.757128996157331e-06,1.685557722027736e-14
	-1.756540143419744e-07,-1.816927361005293e-14
	6.844079321275479e-06,1.044027526130388e-12
	-4.670468802391084e-06,-9.035343409793608e-15
	-1.997956504542420e-06,-1.016822909110542e-12
	1.756540143419739e-07,1.816927361005294e-14
	-6.844079321277619e-06,-1.044027526130388e-12
	1.756540143419739e-07,1.816927361005294e-14
34		2.187761623949550e+00,0.000000000000000e+00
	1.756540143419739e-03,1.859249035999881e-10
	1.000000000000000e+00,0.000000000000000e+00
	0.000000000000000e+00,0.000000000000000e+00
	8.757129009815501e-06,1.791715127065344e-14
	8.757128996157331e-06,1.724819405035694e-14
	-1.756540143419744e-07,-1.859249035999872e-14
	6.844079321275479e-06,1.068346051237438e-12
	-4.670468802391084e-06,-9.245803594091891e-15
	-1.997956504542420e-06,-1.040507757283348e-12
	1.756540143419739e-07,1.859249035999881e-14
	-6.844079321277619e-06,-1.068346051237438e-12
	1.756540143419739e-07,1.859249035999881e-14
35		2.238721138568337e+00,0.000000000000000e+00
	1.756540143419739e-03,1.902556509443426e-10
	1.000000000000000e+00,0.000000000000000e+00
	0.000000000000000e+00,0.000000000000000e+00
	8.757129009815501e-06,1.833449533689387e-14
	8.757128996157331e-06,1.764995610122885e-14
	-1.756540143419744e-07,-1.902556509443415e-14
	6.844079321275479e-06,1.093231027562086e-12
	-4.670468802391084e-06,-9.461166025838441e-15
	-1.997956504542420e-06,-1.064744296441814e-12
	1.756540143419739e-07,1.902556509443426e-14
	-6.844079321277619e-06,-1.093231027562086e-12
	1.756540143419739e-07,1.902556509443426e-14
36		2.290867652767770e+00,0.000000000000000e+00
	1.756540143419739e-03,1.946872743531590e-10
	1.000000000000000e+00,0.000000000000000e+00
	0.000000000000000e+00,0.000000000000000e+00
	8.757129009815501e-06,1.876156059524767e-14
	8.757128996157331e-06,1.806107639245043e-14
	-1.756540143419744e-07,-1.946872743531584e-14
	6.844079321275479e-06,1.118695649448171e-12
	-4.670468802391084e-06,-9.681544893045231e-15
	-1.997956504542420e-06,-1.089545377119810e-12
	1.756540143419739e-07,1.946872743531590e-14
	-6.844079321277619e-06,-1.118695649448171e-12
	1.756540143419739e-07,1.946872743531590e-14
37		2.344228815319919e+00,0.000000000000000e+00
	1.756540143419739e-03,1.992221235318281e-10
	1.000000000000000e+00,0.000000000000000e+00
	0.000000000000000e+00,0.000000000000000e+00
	8.757129009815501e-06,1.919857348136767e-14
	8.757128996157331e-06,1.848177290544189e-14
	-1.756540143419744e-07,-1.992221235318286e-14
	6.844079321275479e-06,1.144753418575280e-12
	-4.670468802391084e-06,-9.907057043504709e-15
	-1.997956504542420e-06,-1.114924149178593e-12
	1.756540143419739e-07,1.992221235318281e-14
	-6.844079321277619e-06,-1.144753418575280e-12
	1.756540143419739e-07,1.992221235318281e-14
38		2.398832919019488e+00,0.000000000000000e+00
	1.756540143419739e-03,2.038626029174104e-10
	1.000000000000000e+00,0.000000000000000e+00
	0.000000000000000e+00,0.000000000000000e+00
	8.757129009815501e-06,1.964576570527066e-14
	8.757128996157331e-06,1.891226869906299e-14
	-1.756540143419744e-07,-2.038626029174113e-14
	6.844079321275479e-06,1.171418151117521e-12
	-4.670468802391084e-06,-1.013782204674405e-14
	-1.997956504542420e-06,-1.140894068779036e-12
	1.756540143419739e-07,2.038626029174104e-14
	-6.844079321277619e-06,-1.171418151117521e-12
	1.756540143419739e-07,2.038626029174104e-14
39		2.454708915685027e+00,0.000000000000000e+00
	1.756540143419739e-03,2.086111729535001e-10
	1.000000000000000e+00,0.000000000000000e+00
	0.000000000000000e+00,0.000000000000000e+00
	8.757129009815501e-06,2.010337437419303e-14
	8.757128996157331e-06,1.935279202788181e-14
	-1.756540143419744e-07,-2.086111729535000e-14
	6.844079321275479e-06,1.198703985069037e-12
	-4.670468802391084e-06,-1.037396225742252e-14
	-1.997956504542420e-06,-1.167468905516264e-12
	1.756540143419739e-07,2.086111729535001e-14
	-6.844079321277619e-06,-1.198703985069036e-12
	1.756540143419739e-07,2.086111729535001e-14
40		2.511886431509577e+00,0.000000000000000e+00
	1.756540143419739e-03,2.134703513947850e-10
	1.000000000000000e+00,0.000000000000000e+00
	0.000000000000000e+00,0.000000000000000e+00
	8.757129009815501e-06,2.057164211830822e-14
	8.757128996157331e-06,1.980357646319830e-14
	-1.756540143419744e-07,-2.134703513947837e-14
	6.844079321275479e-06,1.226625387740159e-12
	-4.670468802391084e-06,-1.061560288020550e-14
	-1.997956504542420e-06,-1.194662749720475e-12
	1.756540143419739e-07,2.134703513947851e-14
	-6.844079321277619e-06,-1.226625387740158e-12
	1.756540143419739e-07,2.134703513947851e-14
41		2.570395782768860e+00,0.000000000000000e+00
	1.756540143419739e-03,2.184427146419936e-10
	1.000000000000000e+00,0.000000000000000e+00
	0.000000000000000e+00,0.000000000000000e+00
	8.757129009815501e-06,2.105081721937240e-14
	8.757128996157331e-06,2.026486101688690e-14
	-1.756540143419744e-07,-2.184427146419929e-14
	6.844079321275479e-06,1.255197163428167e-12
	-4.670468802391084e-06,-1.086287203614967e-14
	-1.997956504542420e-06,-1.222490019927818e-12
	1.756540143419739e-07,2.184427146419936e-14
	-6.844079321277619e-06,-1.255197163428167e-12
	1.756540143419739e-07,2.184427146419936e-14
42		2.630267991895378e+00,0.000000000000000e+00
	1.756540143419739e-03,2.235308991079366e-10
	1.000000000000000e+00,0.000000000000000e+00
	0.000000000000000e+00,0.000000000000000e+00
	8.757129009815501e-06,2.154115374236681e-14
	8.757128996157331e-06,2.073689026812381e-14
	-1.756540143419744e-07,-2.235308991079363e-14
	6.844079321275479e-06,1.284434461266724e-12
	-4.670468802391084e-06,-1.111590083063453e-14
	-1.997956504542420e-06,-1.250965470525296e-12
	1.756540143419739e-07,2.235308991079366e-14
	-6.844079321277619e-06,-1.284434461266724e-12
	1.756540143419739e-07,2.235308991079366e-14
43		2.691534803926912e+00,0.000000000000000e+00
	1.756540143419739e-03,2.287376026153678e-10
	1.000000000000000e+00,0.000000000000000e+00
	0.000000000000000e+00,0.000000000000000e+00
	8.757129009815501e-06,2.204291167020630e-14
	8.757128996157331e-06,2.121991449306606e-14
	-1.756540143419744e-07,-2.287376026153671e-14
	6.844079321275479e-06,1.314352783258144e-12
	-4.670468802391084e-06,-1.137482342287613e-14
	-1.997956504542420e-06,-1.280104199573731e-12
	1.756540143419739e-07,2.287376026153678e-14
	-6.844079321277619e-06,-1.314352783258144e-12
	1.756540143419739e-07,2.287376026153678e-14
44		2.754228703338163e+00,0.000000000000000e+00
	1.756540143419739e-03,2.340655858274057e-10
	1.000000000000000e+00,0.000000000000000e+00
	0.000000000000000e+00,0.000000000000000e+00
	8.757129009815501e-06,2.255635704158576e-14
	8.757128996157331e-06,2.171418979755131e-14
	-1.756540143419744e-07,-2.340655858274054e-14
	6.844079321275479e-06,1.344967992492764e-12
	-4.670468802391084e-06,-1.163977709706012e-14
	-1.997956504542420e-06,-1.309921656812963e-12
	1.756540143419739e-07,2.340655858274057e-14
	-6.844079321277619e-06,-1.344967992492764e-12
	1.756540143419739e-07,2.340655858274057e-14
45		2.818382931264450e+00,0.000000000000000e+00
	1.756540143419739e-03,2.395176737112737e-10
	1.000000000000000e+00,0.000000000000000e+00
	0.000000000000000e+00,0.000000000000000e+00
	8.757129009815501e-06,2.308176209203735e-14
	8.757128996157331e-06,2.221997825288850e-14
	-1.756540143419744e-07,-2.395176737112720e-14
	6.844079321275479e-06,1.376296321559759e-12
	-4.670468802391084e-06,-1.191090233513164e-14
	-1.997956504542420e-06,-1.340433651853500e-12
	1.756540143419739e-07,2.395176737112737e-14
	-6.844079321277619e-06,-1.376296321559759e-12
	1.756540143419739e-07,2.395176737112737e-14
46		2.884031503126602e+00,0.000000000000000e+00
	1.756540143419739e-03,2.450967570361345e-10
	1.000000000000000e+00,0.000000000000000e+00
	0.000000000000000e+00,0.000000000000000e+00
	8.757129009815501e-06,2.361940539827338e-14
	8.757128996157331e-06,2.273754803481156e-14
	-1.756540143419744e-07,-2.450967570361332e-14
	6.844079321275479e-06,1.408354381153881e-12
	-4.670468802391084e-06,-1.218834289128068e-14
	-1.997956504542420e-06,-1.371656362558987e-12
	1.756540143419739e-07,2.450967570361345e-14
	-6.844079321277619e-06,-1.408354381153880e-12
	1.756540143419739e-07,2.450967570361345e-14
47		2.951209226666381e+00,0.000000000000000e+00
	1.756540143419739e-03,2.508057939058151e-10
	1.000000000000000e+00,0.000000000000000e+00
	0.000000000000000e+00,0.000000000000000e+00
	8.757129009815501e-06,2.416957202589136e-14
	8.757128996157331e-06,2.326717356566970e-14
	-1.756540143419744e-07,-2.508057939058155e-14
	6.844079321275479e-06,1.441159168882665e-12
	-4.670468802391084e-06,-1.247224586816246e-14
	-1.997956504542420e-06,-1.403606343623921e-12
	1.756540143419739e-07,2.508057939058151e-14
	-6.844079321277619e-06,-1.441159168882664e-12
	1.756540143419739e-07,2.508057939058151e-14
48		3.019951720402012e+00,0.000000000000000e+00
	1.756540143419739e-03,2.566478113272317e-10
	1.000000000000000e+00,0.000000000000000e+00
	0.000000000000000e+00,0.000000000000000e+00
	8.757129009815501e-06,2.473255368051958e-14
	8.757128996157331e-06,2.380913565992981e-14
	-1.756540143419744e-07,-2.566478113272316e-14
	6.844079321275479e-06,1.474728078278786e-12
	-4.670468802391084e-06,-1.276276179489324e-14
	-1.997956504542420e-06,-1.436300535351170e-12
	1.756540143419739e-07,2.566478113272317e-14
	-6.844079321277619e-06,-1.474728078278786e-12
	1.756540143419739e-07,2.566478113272317e-14
49		3.090295432513586e+00,0.000000000000000e+00
	1.756540143419739e-03,2.626259068153493e-10
	1.000000000000000e+00,0.000000000000000e+00
	0.000000000000000e+00,0.000000000000000e+00