Title: * GA CMOS Amp | W=1.974014297415882e-05 L=5.919127899623481e-07 Vbias=0.9301311126184297
Date: Mon Sep  8 18:44:54 2025
Plotname: AC Analysis
Flags: complex forward log
No. Variables: 11
No. Points:          901
Offset:    0.0000000000000000e+00
Command: Linear Technology Corporation LTspice
Variables:
	0	frequency	frequency
	1	V(out)	voltage
	2	V(g)	voltage
	3	V(vdd)	voltage
	4	Id(M1)	device_current
	5	Ig(M1)	device_current
	6	Ib(M1)	device_current
	7	Is(M1)	device_current
	8	I(Rload)	device_current
	9	I(Vg)	device_current
	10	I(Vdd)	device_current
Values:
0		1.000000000000000e+00,0.000000000000000e+00
	-5.500300009314286e+00,2.631820203065274e-09
	1.000000000000000e+00,0.000000000000000e+00
	0.000000000000000e+00,0.000000000000000e+00
	5.500300009314285e-04,-2.631820203065273e-13
	1.290463041913200e-22,3.968830546521231e-13
	5.500300085184429e-12,1.055334820915554e-14
	-5.500300064317286e-04,-1.442543825547514e-13
	-5.500300009314286e-04,2.631820203065274e-13
	-1.290463041913200e-22,-3.968830546521231e-13
	-5.500300009314286e-04,2.631820203065274e-13
1		1.023292992280754e+00,0.000000000000000e+00
	-5.500300009314286e+00,2.693123170739605e-09
	1.000000000000000e+00,0.000000000000000e+00
	0.000000000000000e+00,0.000000000000000e+00
	5.500300009314285e-04,-2.693123170739605e-13
	1.351280691391915e-22,4.061276485804970e-13
	5.500300085184429e-12,1.079916726752759e-14
	-5.500300064317286e-04,-1.476144987740641e-13
	-5.500300009314286e-04,2.693123170739605e-13
	-1.351280691391915e-22,-4.061276485804970e-13
	-5.500300009314286e-04,2.693123170739605e-13
2		1.047128548050899e+00,0.000000000000000e+00
	-5.500300009314286e+00,2.755854067966763e-09
	1.000000000000000e+00,0.000000000000000e+00
	0.000000000000000e+00,0.000000000000000e+00
	5.500300009314285e-04,-2.755854067966763e-13
	1.414964588386432e-22,4.155875767638834e-13
	5.500300085184429e-12,1.105071218732870e-14
	-5.500300064317286e-04,-1.510528821545358e-13
	-5.500300009314286e-04,2.755854067966763e-13
	-1.414964588386432e-22,-4.155875767638834e-13
	-5.500300009314286e-04,2.755854067966763e-13
3		1.071519305237606e+00,0.000000000000000e+00
	-5.500300009314286e+00,2.820046155498797e-09
	1.000000000000000e+00,0.000000000000000e+00
	0.000000000000000e+00,0.000000000000000e+00
	5.500300009314285e-04,-2.820046155498798e-13
	1.481649814980523e-22,4.252678549814217e-13
	5.500300085184429e-12,1.130811634100510e-14
	-5.500300064317286e-04,-1.545713557725470e-13
	-5.500300009314286e-04,2.820046155498797e-13
	-1.481649814980523e-22,-4.252678549814217e-13
	-5.500300009314286e-04,2.820046155498797e-13
4		1.096478196143185e+00,0.000000000000000e+00
	-5.500300009314286e+00,2.885733468830200e-09
	1.000000000000000e+00,0.000000000000000e+00
	0.000000000000000e+00,0.000000000000000e+00
	5.500300009314285e-04,-2.885733468830200e-13
	1.551477819480438e-22,4.351736158447568e-13
	5.500300085184429e-12,1.157151620764584e-14
	-5.500300064317286e-04,-1.581717851693826e-13
	-5.500300009314286e-04,2.885733468830200e-13
	-1.551477819480438e-22,-4.351736158447568e-13
	-5.500300009314286e-04,2.885733468830200e-13
5		1.122018454301963e+00,0.000000000000000e+00
	-5.500300009314286e+00,2.952950836243977e-09
	1.000000000000000e+00,0.000000000000000e+00
	0.000000000000000e+00,0.000000000000000e+00
	5.500300009314285e-04,-2.952950836243977e-13
	1.624596716445728e-22,4.453101115194167e-13
	5.500300085184429e-12,1.184105144534719e-14
	-5.500300064317286e-04,-1.618560793403662e-13
	-5.500300009314286e-04,2.952950836243977e-13
	-1.624596716445728e-22,-4.453101115194167e-13
	-5.500300009314286e-04,2.952950836243977e-13
6		1.148153621496882e+00,0.000000000000000e+00
	-5.500300009314286e+00,3.021733897278054e-09
	1.000000000000000e+00,0.000000000000000e+00
	0.000000000000000e+00,0.000000000000000e+00
	5.500300009314285e-04,-3.021733897278054e-13
	1.701161600860074e-22,4.556827165095802e-13
	5.500300085184429e-12,1.211686496525971e-14
	-5.500300064317286e-04,-1.656261917470344e-13
	-5.500300009314286e-04,3.021733897278054e-13
	-1.701161600860074e-22,-4.556827165095802e-13
	-5.500300009314286e-04,3.021733897278054e-13
7		1.174897554939529e+00,0.000000000000000e+00
	-5.500300009314286e+00,3.092119121621845e-09
	1.000000000000000e+00,0.000000000000000e+00
	0.000000000000000e+00,0.000000000000000e+00
	5.500300009314285e-04,-3.092119121621845e-13
	1.781334877108552e-22,4.662969305077109e-13
	5.500300085184429e-12,1.239910300736235e-14
	-5.500300064317286e-04,-1.694841213528888e-13
	-5.500300009314286e-04,3.092119121621845e-13
	-1.781334877108552e-22,-4.662969305077109e-13
	-5.500300009314286e-04,3.092119121621845e-13
8		1.202264434617413e+00,0.000000000000000e+00
	-5.500300009314286e+00,3.164143828452955e-09
	1.000000000000000e+00,0.000000000000000e+00
	0.000000000000000e+00,0.000000000000000e+00
	5.500300009314285e-04,-3.164143828452955e-13
	1.865286603459106e-22,4.771583813105664e-13
	5.500300085184429e-12,1.268791521800122e-14
	-5.500300064317286e-04,-1.734319136832721e-13
	-5.500300009314286e-04,3.164143828452955e-13
	-1.865286603459106e-22,-4.771583813105664e-13
	-5.500300009314286e-04,3.164143828452955e-13
9		1.230268770812381e+00,0.000000000000000e+00
	-5.500300009314286e+00,3.237846206224306e-09
	1.000000000000000e+00,0.000000000000000e+00
	0.000000000000000e+00,0.000000000000000e+00
	5.500300009314285e-04,-3.237846206224306e-13
	1.953194852778928e-22,4.882728278031305e-13
	5.500300085184429e-12,1.298345472923297e-14
	-5.500300064317286e-04,-1.774716619099330e-13
	-5.500300009314286e-04,3.237846206224306e-13
	-1.953194852778928e-22,-4.882728278031305e-13
	-5.500300009314286e-04,3.237846206224306e-13
10		1.258925411794167e+00,0.000000000000000e+00
	-5.500300009314286e+00,3.313265332912157e-09
	1.000000000000000e+00,0.000000000000000e+00
	0.000000000000000e+00,0.000000000000000e+00
	5.500300009314285e-04,-3.313265332912157e-13
	2.045246090250889e-22,4.996461630120509e-13
	5.500300085184429e-12,1.328587824001848e-14
	-5.500300064317286e-04,-1.816055079608536e-13
	-5.500300009314286e-04,3.313265332912157e-13
	-2.045246090250889e-22,-4.996461630120509e-13
	-5.500300009314286e-04,3.313265332912157e-13
11		1.288249551693134e+00,0.000000000000000e+00
	-5.500300009314286e+00,3.390441196735770e-09
	1.000000000000000e+00,0.000000000000000e+00
	0.000000000000000e+00,0.000000000000000e+00
	5.500300009314285e-04,-3.390441196735771e-13
	2.141635568891193e-22,5.112844172301990e-13
	5.500300085184429e-12,1.359534609930638e-14
	-5.500300064317286e-04,-1.858356436559282e-13
	-5.500300009314286e-04,3.390441196735771e-13
	-2.141635568891193e-22,-5.112844172301990e-13
	-5.500300009314286e-04,3.390441196735771e-13
12		1.318256738556407e+00,0.000000000000000e+00
	-5.500300009314286e+00,3.469414717359688e-09
	1.000000000000000e+00,0.000000000000000e+00
	0.000000000000000e+00,0.000000000000000e+00
	5.500300009314285e-04,-3.469414717359688e-13
	2.242567743707197e-22,5.231937612140119e-13
	5.500300085184429e-12,1.391202239105169e-14
	-5.500300064317286e-04,-1.901643118690948e-13
	-5.500300009314286e-04,3.469414717359688e-13
	-2.242567743707197e-22,-5.231937612140119e-13
	-5.500300009314286e-04,3.469414717359688e-13
13		1.348962882591653e+00,0.000000000000000e+00
	-5.500300009314286e+00,3.550227767589881e-09
	1.000000000000000e+00,0.000000000000000e+00
	0.000000000000000e+00,0.000000000000000e+00
	5.500300009314285e-04,-3.550227767589881e-13
	2.348256705373899e-22,5.353805094553086e-13
	5.500300085184429e-12,1.423607502121600e-14
	-5.500300064317286e-04,-1.945938077175365e-13
	-5.500300009314286e-04,3.550227767589881e-13
	-2.348256705373899e-22,-5.353805094553086e-13
	-5.500300009314286e-04,3.550227767589881e-13
14		1.380384264602885e+00,0.000000000000000e+00
	-5.500300009314286e+00,3.632923195575272e-09
	1.000000000000000e+00,0.000000000000000e+00
	0.000000000000000e+00,0.000000000000000e+00
	5.500300009314285e-04,-3.632923195575271e-13
	2.458926634348961e-22,5.478511235293173e-13
	5.500300085184429e-12,1.456767580679345e-14
	-5.500300064317286e-04,-1.991264797785836e-13
	-5.500300009314286e-04,3.632923195575272e-13
	-2.458926634348961e-22,-5.478511235293173e-13
	-5.500300009314286e-04,3.632923195575272e-13
15		1.412537544622754e+00,0.000000000000000e+00
	-5.500300009314286e+00,3.717544847526380e-09
	1.000000000000000e+00,0.000000000000000e+00
	0.000000000000000e+00,0.000000000000000e+00
	5.500300009314285e-04,-3.717544847526380e-13
	2.574812276389512e-22,5.606122155206882e-13
	5.500300085184429e-12,1.490700056690970e-14
	-5.500300064317286e-04,-2.037647313349599e-13
	-5.500300009314286e-04,3.717544847526380e-13
	-2.574812276389512e-22,-5.606122155206882e-13
	-5.500300009314286e-04,3.717544847526380e-13
16		1.445439770745927e+00,0.000000000000000e+00
	-5.500300009314286e+00,3.804137590963168e-09
	1.000000000000000e+00,0.000000000000000e+00
	0.000000000000000e+00,0.000000000000000e+00
	5.500300009314285e-04,-3.804137590963168e-13
	2.696159440479380e-22,5.736705515293079e-13
	5.500300085184429e-12,1.525422921604394e-14
	-5.500300064317286e-04,-2.085110216490350e-13
	-5.500300009314286e-04,3.804137590963168e-13
	-2.696159440479380e-22,-5.736705515293079e-13
	-5.500300009314286e-04,3.804137590963168e-13
17		1.479108388168207e+00,0.000000000000000e+00
	-5.500300009314286e+00,3.892747338504398e-09
	1.000000000000000e+00,0.000000000000000e+00
	0.000000000000000e+00,0.000000000000000e+00
	5.500300009314285e-04,-3.892747338504400e-13
	2.823225520222898e-22,5.870330552577760e-13
	5.500300085184429e-12,1.560954585942210e-14
	-5.500300064317286e-04,-2.133678672667581e-13
	-5.500300009314286e-04,3.892747338504398e-13
	-2.823225520222898e-22,-5.870330552577760e-13
	-5.500300009314286e-04,3.892747338504398e-13
18		1.513561248436208e+00,0.000000000000000e+00
	-5.500300009314286e+00,3.983421072211108e-09
	1.000000000000000e+00,0.000000000000000e+00
	0.000000000000000e+00,0.000000000000000e+00
	5.500300009314285e-04,-3.983421072211108e-13
	2.956280039811249e-22,6.007068116824430e-13
	5.500300085184429e-12,1.597313889063160e-14
	-5.500300064317286e-04,-2.183378433519637e-13
	-5.500300009314286e-04,3.983421072211108e-13
	-2.956280039811249e-22,-6.007068116824430e-13
	-5.500300009314286e-04,3.983421072211108e-13
19		1.548816618912481e+00,0.000000000000000e+00
	-5.500300009314286e+00,4.076206868497114e-09
	1.000000000000000e+00,0.000000000000000e+00
	0.000000000000000e+00,0.000000000000000e+00
	5.500300009314285e-04,-4.076206868497116e-13
	3.095605225719408e-22,6.146990708099585e-13
	5.500300085184429e-12,1.634520109151054e-14
	-5.500300064317286e-04,-2.234235850517575e-13
	-5.500300009314286e-04,4.076206868497115e-13
	-3.095605225719408e-22,-6.146990708099585e-13
	-5.500300009314286e-04,4.076206868497115e-13
20		1.584893192461113e+00,0.000000000000000e+00
	-5.500300009314286e+00,4.171153923619775e-09
	1.000000000000000e+00,0.000000000000000e+00
	0.000000000000000e+00,0.000000000000000e+00
	5.500300009314285e-04,-4.171153923619776e-13
	3.241496605346341e-22,6.290172515213216e-13
	5.500300085184429e-12,1.672592973436252e-14
	-5.500300064317286e-04,-2.286277888937065e-13
	-5.500300009314286e-04,4.171153923619775e-13
	-3.241496605346341e-22,-6.290172515213216e-13
	-5.500300009314286e-04,4.171153923619775e-13
21		1.621810097358929e+00,0.000000000000000e+00
	-5.500300009314286e+00,4.268312579764488e-09
	1.000000000000000e+00,0.000000000000000e+00
	0.000000000000000e+00,0.000000000000000e+00
	5.500300009314285e-04,-4.268312579764488e-13
	3.394263633868234e-22,6.436689455054688e-13
	5.500300085184429e-12,1.711552668655349e-14
	-5.500300064317286e-04,-2.339532142155735e-13
	-5.500300009314286e-04,4.268312579764488e-13
	-3.394263633868234e-22,-6.436689455054688e-13
	-5.500300009314286e-04,4.268312579764488e-13
22		1.659586907437560e+00,0.000000000000000e+00
	-5.500300009314286e+00,4.367734351736788e-09
	1.000000000000000e+00,0.000000000000000e+00
	0.000000000000000e+00,0.000000000000000e+00
	5.500300009314285e-04,-4.367734351736789e-13
	3.554230350634414e-22,6.586619212844889e-13
	5.500300085184429e-12,1.751419851754441e-14
	-5.500300064317286e-04,-2.394026846283545e-13
	-5.500300009314286e-04,4.367734351736788e-13
	-3.554230350634414e-22,-6.586619212844889e-13
	-5.500300009314286e-04,4.367734351736788e-13
23		1.698243652461743e+00,0.000000000000000e+00
	-5.500300009314286e+00,4.469471954276177e-09
	1.000000000000000e+00,0.000000000000000e+00
	0.000000000000000e+00,0.000000000000000e+00
	5.500300009314285e-04,-4.469471954276178e-13
	3.721736066498254e-22,6.740041283325952e-13
	5.500300085184429e-12,1.792215660841707e-14
	-5.500300064317286e-04,-2.449790895133945e-13
	-5.500300009314286e-04,4.469471954276177e-13
	-3.721736066498254e-22,-6.740041283325952e-13
	-5.500300009314286e-04,4.469471954276177e-13
24		1.737800828749374e+00,0.000000000000000e+00
	-5.500300009314286e+00,4.573579330006179e-09
	1.000000000000000e+00,0.000000000000000e+00
	0.000000000000000e+00,0.000000000000000e+00
	5.500300009314285e-04,-4.573579330006178e-13
	3.897136083540981e-22,6.897037012910426e-13
	5.500300085184429e-12,1.833961726395133e-14
	-5.500300064317286e-04,-2.506853855543762e-13
	-5.500300009314286e-04,4.573579330006179e-13
	-3.897136083540981e-22,-6.897037012910426e-13
	-5.500300009314286e-04,4.573579330006179e-13
25		1.778279410038922e+00,0.000000000000000e+00
	-5.500300009314286e+00,4.680111678035430e-09
	1.000000000000000e+00,0.000000000000000e+00
	0.000000000000000e+00,0.000000000000000e+00
	5.500300009314285e-04,-4.680111678035429e-13
	4.080802448715038e-22,7.057689642812224e-13
	5.500300085184429e-12,1.876680182731266e-14
	-5.500300064317286e-04,-2.565245983049921e-13
	-5.500300009314286e-04,4.680111678035430e-13
	-4.080802448715038e-22,-7.057689642812224e-13
	-5.500300009314286e-04,4.680111678035430e-13
26		1.819700858609982e+00,0.000000000000000e+00
	-5.500300009314286e+00,4.789125483224975e-09
	1.000000000000000e+00,0.000000000000000e+00
	0.000000000000000e+00,0.000000000000000e+00
	5.500300009314285e-04,-4.789125483224976e-13
	4.273124743005530e-22,7.222084353182208e-13
	5.500300085184429e-12,1.920393679741065e-14
	-5.500300064317286e-04,-2.624998237931338e-13
	-5.500300009314286e-04,4.789125483224975e-13
	-4.273124743005530e-22,-7.222084353182208e-13
	-5.500300009314286e-04,4.789125483224975e-13
27		1.862087136662866e+00,0.000000000000000e+00
	-5.500300009314286e+00,4.900678546137298e-09
	1.000000000000000e+00,0.000000000000000e+00
	0.000000000000000e+00,0.000000000000000e+00
	5.500300009314285e-04,-4.900678546137297e-13
	4.474510907783754e-22,7.390308308271835e-13
	5.500300085184429e-12,1.965125394899290e-14
	-5.500300064317286e-04,-2.686142301624466e-13
	-5.500300009314286e-04,4.900678546137298e-13
	-4.474510907783754e-22,-7.390308308271835e-13
	-5.500300009314286e-04,4.900678546137298e-13
28		1.905460717963246e+00,0.000000000000000e+00
	-5.500300009314286e+00,5.014830013682931e-09
	1.000000000000000e+00,0.000000000000000e+00
	0.000000000000000e+00,0.000000000000000e+00
	5.500300009314285e-04,-5.014830013682930e-13
	4.685388110105514e-22,7.562450702648804e-13
	5.500300085184429e-12,2.010899045553372e-14
	-5.500300064317286e-04,-2.748710593521212e-13
	-5.500300009314286e-04,5.014830013682931e-13
	-4.685388110105514e-22,-7.562450702648804e-13
	-5.500300009314286e-04,5.014830013682931e-13
29		1.949844599758044e+00,0.000000000000000e+00
	-5.500300009314286e+00,5.131640410480943e-09
	1.000000000000000e+00,0.000000000000000e+00
	0.000000000000000e+00,0.000000000000000e+00
	5.500300009314285e-04,-5.131640410480941e-13
	4.906203648789737e-22,7.738602808489186e-13
	5.500300085184429e-12,2.057738901498847e-14
	-5.500300064317286e-04,-2.812736288158129e-13
	-5.500300009314286e-04,5.131640410480943e-13
	-4.906203648789737e-22,-7.738602808489186e-13
	-5.500300009314286e-04,5.131640410480943e-13
30		1.995262314968878e+00,0.000000000000000e+00
	-5.500300009314286e+00,5.251171670949880e-09
	1.000000000000000e+00,0.000000000000000e+00
	0.000000000000000e+00,0.000000000000000e+00
	5.500300009314285e-04,-5.251171670949880e-13
	5.137425903199222e-22,7.918858023971147e-13
	5.500300085184429e-12,2.105669797847259e-14
	-5.500300064317286e-04,-2.878253332805993e-13
	-5.500300009314286e-04,5.251171670949881e-13
	-5.137425903199222e-22,-7.918858023971147e-13
	-5.500300009314286e-04,5.251171670949881e-13
31		2.041737944669527e+00,0.000000000000000e+00
	-5.500300009314286e+00,5.373487172146230e-09
	1.000000000000000e+00,0.000000000000000e+00
	0.000000000000000e+00,0.000000000000000e+00
	5.500300009314285e-04,-5.373487172146229e-13
	5.379545326736080e-22,8.103311922795894e-13
	5.500300085184429e-12,2.154717148194323e-14
	-5.500300064317286e-04,-2.945296465469098e-13
	-5.500300009314286e-04,5.373487172146230e-13
	-5.379545326736080e-22,-8.103311922795894e-13
	-5.500300009314286e-04,5.373487172146230e-13
32		2.089296130854037e+00,0.000000000000000e+00
	-5.500300009314286e+00,5.498651767367763e-09
	1.000000000000000e+00,0.000000000000000e+00
	0.000000000000000e+00,0.000000000000000e+00
	5.500300009314285e-04,-5.498651767367764e-13
	5.633075487159153e-22,8.292062304862121e-13
	5.500300085184429e-12,2.204906958094438e-14
	-5.500300064317286e-04,-3.013901233303801e-13
	-5.500300009314286e-04,5.498651767367763e-13
	-5.633075487159153e-22,-8.292062304862121e-13
	-5.500300009314286e-04,5.498651767367763e-13
33		2.137962089502230e+00,0.000000000000000e+00
	-5.500300009314286e+00,5.626731820539614e-09
	1.000000000000000e+00,0.000000000000000e+00
	0.000000000000000e+00,0.000000000000000e+00
	5.500300009314285e-04,-5.626731820539615e-13
	5.898554155930077e-22,8.485209248120808e-13
	5.500300085184429e-12,2.256265838849087e-14
	-5.500300064317286e-04,-3.084104011466102e-13
	-5.500300009314286e-04,5.626731820539615e-13
	-5.898554155930077e-22,-8.485209248120808e-13
	-5.500300009314286e-04,5.626731820539615e-13
34		2.187761623949550e+00,0.000000000000000e+00
	-5.500300009314286e+00,5.757795241401318e-09
	1.000000000000000e+00,0.000000000000000e+00
	0.000000000000000e+00,0.000000000000000e+00
	5.500300009314285e-04,-5.757795241401317e-13
	6.176544448898661e-22,8.682855161637869e-13
	5.500300085184429e-12,2.308821021616739e-14
	-5.500300064317286e-04,-3.155942022398225e-13
	-5.500300009314286e-04,5.757795241401318e-13
	-6.176544448898661e-22,-8.682855161637869e-13
	-5.500300009314286e-04,5.757795241401318e-13
35		2.238721138568337e+00,0.000000000000000e+00
	-5.500300009314286e+00,5.891911521513442e-09
	1.000000000000000e+00,0.000000000000000e+00
	0.000000000000000e+00,0.000000000000000e+00
	5.500300009314285e-04,-5.891911521513440e-13
	6.467636020747099e-22,8.885104839892805e-13
	5.500300085184429e-12,2.362600371850894e-14
	-5.500300064317286e-04,-3.229453355564454e-13
	-5.500300009314286e-04,5.891911521513443e-13
	-6.467636020747099e-22,-8.885104839892805e-13
	-5.500300009314286e-04,5.891911521513443e-13
36		2.290867652767770e+00,0.000000000000000e+00
	-5.500300009314286e+00,6.029151771102941e-09
	1.000000000000000e+00,0.000000000000000e+00
	0.000000000000000e+00,0.000000000000000e+00
	5.500300009314285e-04,-6.029151771102939e-13
	6.772446315726607e-22,9.092065518342120e-13
	5.500300085184429e-12,2.417632404074928e-14
	-5.500300064317286e-04,-3.304676987646673e-13
	-5.500300009314286e-04,6.029151771102941e-13
	-6.772446315726607e-22,-9.092065518342120e-13
	-5.500300009314286e-04,6.029151771102941e-13
37		2.344228815319919e+00,0.000000000000000e+00
	-5.500300009314286e+00,6.169588756766736e-09
	1.000000000000000e+00,0.000000000000000e+00
	0.000000000000000e+00,0.000000000000000e+00
	5.500300009314285e-04,-6.169588756766737e-13
	7.091621877339463e-22,9.303846930276972e-13
	5.500300085184429e-12,2.473946297000767e-14
	-5.500300064317286e-04,-3.381652803210312e-13
	-5.500300009314286e-04,6.169588756766736e-13
	-7.091621877339463e-22,-9.303846930276972e-13
	-5.500300009314286e-04,6.169588756766736e-13
38		2.398832919019488e+00,0.000000000000000e+00
	-5.500300009314286e+00,6.313296940053532e-09
	1.000000000000000e+00,0.000000000000000e+00
	0.000000000000000e+00,0.000000000000000e+00
	5.500300009314285e-04,-6.313296940053532e-13
	7.425839719744469e-22,9.520561365005232e-13
	5.500300085184429e-12,2.531571908999808e-14
	-5.500300064317286e-04,-3.460421615851681e-13
	-5.500300009314286e-04,6.313296940053532e-13
	-7.425839719744469e-22,-9.520561365005232e-13
	-5.500300009314286e-04,6.313296940053532e-13
39		2.454708915685027e+00,0.000000000000000e+00
	-5.500300009314286e+00,6.460352516944306e-09
	1.000000000000000e+00,0.000000000000000e+00
	0.000000000000000e+00,0.000000000000000e+00
	5.500300009314285e-04,-6.460352516944306e-13
	7.775808763794723e-22,9.742323727388745e-13
	5.500300085184429e-12,2.590539793934295e-14
	-5.500300064317286e-04,-3.541025189837868e-13
	-5.500300009314286e-04,6.460352516944306e-13
	-7.775808763794723e-22,-9.742323727388745e-13
	-5.500300009314286e-04,6.460352516944306e-13
40		2.511886431509577e+00,0.000000000000000e+00
	-5.500300009314286e+00,6.610833458252440e-09
	1.000000000000000e+00,0.000000000000000e+00
	0.000000000000000e+00,0.000000000000000e+00
	5.500300009314285e-04,-6.610833458252438e-13
	8.142271340753826e-22,9.969251598767418e-13
	5.500300085184429e-12,2.650881217357383e-14
	-5.500300064317286e-04,-3.623506262250717e-13
	-5.500300009314286e-04,6.610833458252439e-13
	-8.142271340753826e-22,-9.969251598767418e-13
	-5.500300009314286e-04,6.610833458252439e-13
41		2.570395782768860e+00,0.000000000000000e+00
	-5.500300009314286e+00,6.764819550964864e-09
	1.000000000000000e+00,0.000000000000000e+00
	0.000000000000000e+00,0.000000000000000e+00
	5.500300009314285e-04,-6.764819550964865e-13
	8.526004766880003e-22,1.020146529930240e-12
	5.500300085184429e-12,2.712628173090494e-14
	-5.500300064317286e-04,-3.707908565646587e-13
	-5.500300009314286e-04,6.764819550964864e-13
	-8.526004766880003e-22,-1.020146529930240e-12
	-5.500300009314286e-04,6.764819550964864e-13
42		2.630267991895378e+00,0.000000000000000e+00
	-5.500300009314286e+00,6.922392440546183e-09
	1.000000000000000e+00,0.000000000000000e+00
	0.000000000000000e+00,0.000000000000000e+00
	5.500300009314285e-04,-6.922392440546184e-13
	8.927822992218105e-22,1.043908795177143e-12
	5.500300085184429e-12,2.775813400186865e-14
	-5.500300064317286e-04,-3.794276851243935e-13
	-5.500300009314286e-04,6.922392440546184e-13
	-8.927822992218105e-22,-1.043908795177143e-12
	-5.500300009314286e-04,6.922392440546184e-13
43		2.691534803926912e+00,0.000000000000000e+00
	-5.500300009314286e+00,7.083635674228177e-09
	1.000000000000000e+00,0.000000000000000e+00
	0.000000000000000e+00,0.000000000000000e+00
	5.500300009314285e-04,-7.083635674228180e-13
	9.348578327096784e-22,1.068224554685016e-12
	5.500300085184429e-12,2.840470400290242e-14
	-5.500300064317286e-04,-3.882656912651004e-13
	-5.500300009314286e-04,7.083635674228178e-13
	-9.348578327096784e-22,-1.068224554685016e-12
	-5.500300009314286e-04,7.083635674228178e-13
44		2.754228703338163e+00,0.000000000000000e+00
	-5.500300009314286e+00,7.248634745307649e-09
	1.000000000000000e+00,0.000000000000000e+00
	0.000000000000000e+00,0.000000000000000e+00
	5.500300009314285e-04,-7.248634745307646e-13
	9.789163249992961e-22,1.093106700991406e-12
	5.500300085184429e-12,2.906633455397878e-14
	-5.500300064317286e-04,-3.973095610146202e-13
	-5.500300009314286e-04,7.248634745307649e-13
	-9.789163249992961e-22,-1.093106700991406e-12
	-5.500300009314286e-04,7.248634745307649e-13
45		2.818382931264450e+00,0.000000000000000e+00
	-5.500300009314286e+00,7.417477138476105e-09
	1.000000000000000e+00,0.000000000000000e+00
	0.000000000000000e+00,0.000000000000000e+00
	5.500300009314285e-04,-7.417477138476105e-13
	1.025051230059836e-21,1.118568426939640e-12
	5.500300085184429e-12,2.974337646037441e-14
	-5.500300064317286e-04,-4.065640895524034e-13
	-5.500300009314286e-04,7.417477138476105e-13
	-1.025051230059836e-21,-1.118568426939640e-12
	-5.500300009314286e-04,7.417477138476105e-13
46		2.884031503126602e+00,0.000000000000000e+00
	-5.500300009314286e+00,7.590252376205298e-09
	1.000000000000000e+00,0.000000000000000e+00
	0.000000000000000e+00,0.000000000000000e+00
	5.500300009314285e-04,-7.590252376205298e-13
	1.073360406210344e-21,1.144623232673840e-12
	5.500300085184429e-12,3.043618869866947e-14
	-5.500300064317286e-04,-4.160341837519793e-13
	-5.500300009314286e-04,7.590252376205298e-13
	-1.073360406210344e-21,-1.144623232673840e-12
	-5.500300009314286e-04,7.590252376205298e-13
47		2.951209226666381e+00,0.000000000000000e+00
	-5.500300009314286e+00,7.767052066213223e-09
	1.000000000000000e+00,0.000000000000000e+00
	0.000000000000000e+00,0.000000000000000e+00
	5.500300009314285e-04,-7.767052066213224e-13
	1.123946323690361e-21,1.171284932796883e-12
	5.500300085184429e-12,3.114513860708305e-14
	-5.500300064317286e-04,-4.257248647826440e-13
	-5.500300009314286e-04,7.767052066213224e-13
	-1.123946323690361e-21,-1.171284932796883e-12
	-5.500300009314286e-04,7.767052066213224e-13
48		3.019951720402012e+00,0.000000000000000e+00
	-5.500300009314286e+00,7.947969950035745e-09
	1.000000000000000e+00,0.000000000000000e+00
	0.000000000000000e+00,0.000000000000000e+00
	5.500300009314285e-04,-7.947969950035745e-13
	1.176916282013034e-21,1.198567663695085e-12
	5.500300085184429e-12,3.187060208024119e-14
	-5.500300064317286e-04,-4.356412707717513e-13
	-5.500300009314286e-04,7.947969950035745e-13
	-1.176916282013034e-21,-1.198567663695085e-12
	-5.500300009314286e-04,7.947969950035745e-13
49		3.090295432513586e+00,0.000000000000000e+00
	-5.500300009314286e+00,8.133101952729593e-09
	1.000000000000000e+00,0.000000000000000e+00
	0.000000000000000e+00,0.000000000000000e+00
	5.500300009314285e-04,-8.133101952729591e-13
	1.232382637561771e-21,1.226485891033495e-12
	5.500300085184429e-12,3.261296376847924e-14
	-5.500300064317286e-04,-4.457886595290156e-13
	-5.500300009314286e-04,8.133101952729593e-13
	-1.232382637561771e-21,-1.226485891033495e-12
	-5.500300009314286e-04,8.133101952729593e-13
50		3.162277660168374e+00,0.000000000000000e+00
	-5.500300009314286e+00,8.322546233733109e-09
	1.000000000000000e+00,0.000000000000000e+00
	0.000000000000000e+00,0.000000000000000e+00
	5.500300009314285e-04,-8.322546233733108e-13
	1.290463041913196e-21,1.255054417425793e-12
	5.500300085184429e-12,3.337261728179065e-14
	-5.500300064317286e-04,-4.561724113342726e-13
	-5.500300009314286e-04,8.322546233733109e-13
	-1.290463041913196e-21,-1.255054417425793e-12
	-5.500300009314286e-04,8.322546233733109e-13
51		3.235936569296277e+00,0.000000000000000e+00
	-5.500300009314286e+00,8.516403238911674e-09
	1.000000000000000e+00,0.000000000000000e+00
	0.000000000000000e+00,0.000000000000000e+00
	5.500300009314285e-04,-8.516403238911672e-13
	1.351280691391912e-21,1.284288390282818e-12
	5.500300085184429e-12,3.414996539852406e-14
	-5.500300064317286e-04,-4.667980317901749e-13
	-5.500300009314286e-04,8.516403238911674e-13
	-1.351280691391912e-21,-1.284288390282818e-12
	-5.500300009314286e-04,8.516403238911674e-13
52		3.311311214825905e+00,0.000000000000000e+00
	-5.500300009314286e+00,8.714775753815433e-09
	1.000000000000000e+00,0.000000000000000e+00
	0.000000000000000e+00,0.000000000000000e+00
	5.500300009314285e-04,-8.714775753815432e-13
	1.414964588386428e-21,1.314203309843938e-12
	5.500300085184429e-12,3.494542027894011e-14
	-5.500300064317286e-04,-4.776711547413346e-13
	-5.500300009314286e-04,8.714775753815434e-13
	-1.414964588386428e-21,-1.314203309843938e-12
	-5.500300009314286e-04,8.714775753815434e-13
53		3.388441561392020e+00,0.000000000000000e+00
	-5.500300009314286e+00,8.917768958177556e-09
	1.000000000000000e+00,0.000000000000000e+00
	0.000000000000000e+00,0.000000000000000e+00
	5.500300009314285e-04,-8.917768958177557e-13
	1.481649814980518e-21,1.344815037395474e-12
	5.500300085184429e-12,3.575940368374475e-14
	-5.500300064317286e-04,-4.887975452614632e-13
	-5.500300009314286e-04,8.917768958177556e-13
	-1.481649814980518e-21,-1.344815037395474e-12
	-5.500300009314286e-04,8.917768958177556e-13
54		3.467368504525310e+00,0.000000000000000e+00
	-5.500300009314286e+00,9.125490481681935e-09
	1.000000000000000e+00,0.000000000000000e+00
	0.000000000000000e+00,0.000000000000000e+00
	5.500300009314285e-04,-9.125490481681932e-13
	1.551477819480434e-21,1.376139803680569e-12
	5.500300085184429e-12,3.659234719771463e-14
	-5.500300064317286e-04,-5.001831027100901e-13
	-5.500300009314286e-04,9.125490481681934e-13
	-1.551477819480434e-21,-1.376139803680569e-12
	-5.500300009314286e-04,9.125490481681934e-13
55		3.548133892335748e+00,0.000000000000000e+00
	-5.500300009314286e+00,9.338050461029847e-09
	1.000000000000000e+00,0.000000000000000e+00
	0.000000000000000e+00,0.000000000000000e+00
	5.500300009314285e-04,-9.338050461029849e-13
	1.624596716445722e-21,1.408194217504939e-12
	5.500300085184429e-12,3.744469245852607e-14
	-5.500300064317286e-04,-5.118338638604799e-13
	-5.500300009314286e-04,9.338050461029847e-13
	-1.624596716445722e-21,-1.408194217504939e-12
	-5.500300009314286e-04,9.338050461029847e-13
56		3.630780547701007e+00,0.000000000000000e+00
	-5.500300009314286e+00,9.555561598335908e-09
	1.000000000000000e+00,0.000000000000000e+00
	0.000000000000000e+00,0.000000000000000e+00
	5.500300009314285e-04,-9.555561598335908e-13
	1.701161600860068e-21,1.440995274543084e-12
	5.500300085184429e-12,3.831689139091765e-14
	-5.500300064317286e-04,-5.237560061004107e-13
	-5.500300009314286e-04,9.555561598335908e-13
	-1.701161600860068e-21,-1.440995274543084e-12
	-5.500300009314286e-04,9.555561598335908e-13
57		3.715352290971718e+00,0.000000000000000e+00
	-5.500300009314286e+00,9.778139220884216e-09
	1.000000000000000e+00,0.000000000000000e+00
	0.000000000000000e+00,0.000000000000000e+00
	5.500300009314285e-04,-9.778139220884217e-13
	1.781334877108547e-21,1.474560366349619e-12
	5.500300085184429e-12,3.920940644630883e-14
	-5.500300064317286e-04,-5.359558507075060e-13
	-5.500300009314286e-04,9.778139220884217e-13
	-1.781334877108547e-21,-1.474560366349619e-12
	-5.500300009314286e-04,9.778139220884217e-13
58		3.801893963205605e+00,0.000000000000000e+00