Title: * GA CMOS Amp | W=3.1101730942831895e-05 L=4.424285351128473e-07 Vbias=0.6901610211114562
Date: Mon Sep  8 21:04:30 2025
Plotname: AC Analysis
Flags: complex forward log nocompression
No. Variables: 2
No. Points:         3601
Offset:    0.0000000000000000e+00
Command: Linear Technology Corporation LTspice
Variables:
	0	frequency	frequency
	1	V(out)	voltage
Values:
0		1.000000000000000e+00,0.000000000000000e+00
	-8.386423900102518e+00,3.171637350355351e-09
1		1.005773063001738e+00,0.000000000000000e+00
	-8.386423900102518e+00,3.189947412597620e-09
2		1.011579454259899e+00,0.000000000000000e+00
	-8.386423900102518e+00,3.208363179982778e-09
3		1.017419366180605e+00,0.000000000000000e+00
	-8.386423900102518e+00,3.226885262753275e-09
4		1.023292992280754e+00,0.000000000000000e+00
	-8.386423900102518e+00,3.245514274674530e-09
5		1.029200527194428e+00,0.000000000000000e+00
	-8.386423900102518e+00,3.264250833055268e-09
6		1.035142166679344e+00,0.000000000000000e+00
	-8.386423900102518e+00,3.283095558767973e-09
7		1.041118107623340e+00,0.000000000000000e+00
	-8.386423900102518e+00,3.302049076269467e-09
8		1.047128548050900e+00,0.000000000000000e+00
	-8.386423900102518e+00,3.321112013621603e-09
9		1.053173687129716e+00,0.000000000000000e+00
	-8.386423900102518e+00,3.340285002512070e-09
10		1.059253725177289e+00,0.000000000000000e+00
	-8.386423900102518e+00,3.359568678275334e-09
11		1.065368863667564e+00,0.000000000000000e+00
	-8.386423900102518e+00,3.378963679913684e-09
12		1.071519305237607e+00,0.000000000000000e+00
	-8.386423900102518e+00,3.398470650118412e-09
13		1.077705253694323e+00,0.000000000000000e+00
	-8.386423900102518e+00,3.418090235291103e-09
14		1.083926914021204e+00,0.000000000000000e+00
	-8.386423900102518e+00,3.437823085565066e-09
15		1.090184492385128e+00,0.000000000000000e+00
	-8.386423900102518e+00,3.457669854826863e-09
16		1.096478196143186e+00,0.000000000000000e+00
	-8.386423900102518e+00,3.477631200737990e-09
17		1.102808233849553e+00,0.000000000000000e+00
	-8.386423900102518e+00,3.497707784756662e-09
18		1.109174815262402e+00,0.000000000000000e+00
	-8.386423900102518e+00,3.517900272159732e-09
19		1.115578151350854e+00,0.000000000000000e+00
	-8.386423900102518e+00,3.538209332064743e-09
20		1.122018454301965e+00,0.000000000000000e+00
	-8.386423900102518e+00,3.558635637452091e-09
21		1.128495937527763e+00,0.000000000000000e+00
	-8.386423900102518e+00,3.579179865187333e-09
22		1.135010815672317e+00,0.000000000000000e+00
	-8.386423900102518e+00,3.599842696043612e-09
23		1.141563304618847e+00,0.000000000000000e+00
	-8.386423900102518e+00,3.620624814724220e-09
24		1.148153621496885e+00,0.000000000000000e+00
	-8.386423900102518e+00,3.641526909885280e-09
25		1.154781984689460e+00,0.000000000000000e+00
	-8.386423900102518e+00,3.662549674158574e-09
26		1.161448613840345e+00,0.000000000000000e+00
	-8.386423900102518e+00,3.683693804174487e-09
27		1.168153729861326e+00,0.000000000000000e+00
	-8.386423900102518e+00,3.704960000585099e-09
28		1.174897554939532e+00,0.000000000000000e+00
	-8.386423900102518e+00,3.726348968087397e-09
29		1.181680312544786e+00,0.000000000000000e+00
	-8.386423900102518e+00,3.747861415446628e-09
30		1.188502227437020e+00,0.000000000000000e+00
	-8.386423900102518e+00,3.769498055519785e-09
31		1.195363525673721e+00,0.000000000000000e+00
	-8.386423900102518e+00,3.791259605279231e-09
32		1.202264434617415e+00,0.000000000000000e+00
	-8.386423900102518e+00,3.813146785836453e-09
33		1.209205182943211e+00,0.000000000000000e+00
	-8.386423900102518e+00,3.835160322465964e-09
34		1.216186000646371e+00,0.000000000000000e+00
	-8.386423900102518e+00,3.857300944629327e-09
35		1.223207119049934e+00,0.000000000000000e+00
	-8.386423900102518e+00,3.879569385999336e-09
36		1.230268770812384e+00,0.000000000000000e+00
	-8.386423900102518e+00,3.901966384484325e-09
37		1.237371189935355e+00,0.000000000000000e+00
	-8.386423900102518e+00,3.924492682252617e-09
38		1.244514611771388e+00,0.000000000000000e+00
	-8.386423900102518e+00,3.947149025757124e-09
39		1.251699273031728e+00,0.000000000000000e+00
	-8.386423900102518e+00,3.969936165760069e-09
40		1.258925411794170e+00,0.000000000000000e+00
	-8.386423900102518e+00,3.992854857357881e-09
41		1.266193267510947e+00,0.000000000000000e+00
	-8.386423900102518e+00,4.015905860006205e-09
42		1.273503081016665e+00,0.000000000000000e+00
	-8.386423900102518e+00,4.039089937545071e-09
43		1.280855094536282e+00,0.000000000000000e+00
	-8.386423900102518e+00,4.062407858224206e-09
44		1.288249551693137e+00,0.000000000000000e+00
	-8.386423900102518e+00,4.085860394728490e-09
45		1.295686697517022e+00,0.000000000000000e+00
	-8.386423900102518e+00,4.109448324203565e-09
46		1.303166778452302e+00,0.000000000000000e+00
	-8.386423900102518e+00,4.133172428281580e-09
47		1.310690042366080e+00,0.000000000000000e+00
	-8.386423900102518e+00,4.157033493107097e-09
48		1.318256738556410e+00,0.000000000000000e+00
	-8.386423900102518e+00,4.181032309363142e-09
49		1.325867117760563e+00,0.000000000000000e+00
	-8.386423900102518e+00,4.205169672297397e-09
50		1.333521432163328e+00,0.000000000000000e+00
	-8.386423900102518e+00,4.229446381748569e-09
51		1.341219935405375e+00,0.000000000000000e+00
	-8.386423900102518e+00,4.253863242172879e-09
52		1.348962882591657e+00,0.000000000000000e+00
	-8.386423900102518e+00,4.278421062670722e-09
53		1.356750530299865e+00,0.000000000000000e+00
	-8.386423900102518e+00,4.303120657013483e-09
54		1.364583136588928e+00,0.000000000000000e+00
	-8.386423900102518e+00,4.327962843670505e-09
55		1.372460961007566e+00,0.000000000000000e+00
	-8.386423900102518e+00,4.352948445836196e-09
56		1.380384264602889e+00,0.000000000000000e+00
	-8.386423900102518e+00,4.378078291457328e-09
57		1.388353309929050e+00,0.000000000000000e+00
	-8.386423900102518e+00,4.403353213260453e-09
58		1.396368361055942e+00,0.000000000000000e+00
	-8.386423900102518e+00,4.428774048779513e-09
59		1.404429683577952e+00,0.000000000000000e+00
	-8.386423900102518e+00,4.454341640383581e-09
60		1.412537544622759e+00,0.000000000000000e+00
	-8.386423900102518e+00,4.480056835304783e-09
61		1.420692212860187e+00,0.000000000000000e+00
	-8.386423900102518e+00,4.505920485666364e-09
62		1.428893958511108e+00,0.000000000000000e+00
	-8.386423900102518e+00,4.531933448510940e-09
63		1.437143053356396e+00,0.000000000000000e+00
	-8.386423900102518e+00,4.558096585828878e-09
64		1.445439770745933e+00,0.000000000000000e+00
	-8.386423900102518e+00,4.584410764586878e-09
65		1.453784385607667e+00,0.000000000000000e+00
	-8.386423900102518e+00,4.610876856756683e-09
66		1.462177174456723e+00,0.000000000000000e+00
	-8.386423900102518e+00,4.637495739343996e-09
67		1.470618415404566e+00,0.000000000000000e+00
	-8.386423900102518e+00,4.664268294417522e-09
68		1.479108388168213e+00,0.000000000000000e+00
	-8.386423900102518e+00,4.691195409138206e-09
69		1.487647374079508e+00,0.000000000000000e+00
	-8.386423900102518e+00,4.718277975788627e-09
70		1.496235656094439e+00,0.000000000000000e+00
	-8.386423900102518e+00,4.745516891802567e-09
71		1.504873518802520e+00,0.000000000000000e+00
	-8.386423900102518e+00,4.772913059794758e-09
72		1.513561248436214e+00,0.000000000000000e+00
	-8.386423900102518e+00,4.800467387590772e-09
73		1.522299132880426e+00,0.000000000000000e+00
	-8.386423900102518e+00,4.828180788257124e-09
74		1.531087461682036e+00,0.000000000000000e+00
	-8.386423900102518e+00,4.856054180131513e-09
75		1.539926526059498e+00,0.000000000000000e+00
	-8.386423900102518e+00,4.884088486853268e-09
76		1.548816618912488e+00,0.000000000000000e+00
	-8.386423900102518e+00,4.912284637393936e-09
77		1.557758034831609e+00,0.000000000000000e+00
	-8.386423900102518e+00,4.940643566088083e-09
78		1.566751070108156e+00,0.000000000000000e+00
	-8.386423900102518e+00,4.969166212664242e-09
79		1.575796022743931e+00,0.000000000000000e+00
	-8.386423900102518e+00,4.997853522276062e-09
80		1.584893192461120e+00,0.000000000000000e+00
	-8.386423900102518e+00,5.026706445533623e-09
81		1.594042880712224e+00,0.000000000000000e+00
	-8.386423900102518e+00,5.055725938534930e-09
82		1.603245390690048e+00,0.000000000000000e+00
	-8.386423900102518e+00,5.084912962897615e-09
83		1.612501027337748e+00,0.000000000000000e+00
	-8.386423900102518e+00,5.114268485790779e-09
84		1.621810097358937e+00,0.000000000000000e+00
	-8.386423900102518e+00,5.143793479967053e-09
85		1.631172909227846e+00,0.000000000000000e+00
	-8.386423900102518e+00,5.173488923794835e-09
86		1.640589773199547e+00,0.000000000000000e+00
	-8.386423900102518e+00,5.203355801290697e-09
87		1.650061001320235e+00,0.000000000000000e+00
	-8.386423900102518e+00,5.233395102152009e-09
88		1.659586907437568e+00,0.000000000000000e+00
	-8.386423900102518e+00,5.263607821789721e-09
89		1.669167807211066e+00,0.000000000000000e+00
	-8.386423900102518e+00,5.293994961361357e-09
90		1.678804018122569e+00,0.000000000000000e+00
	-8.386423900102518e+00,5.324557527804182e-09
91		1.688495859486762e+00,0.000000000000000e+00
	-8.386423900102518e+00,5.355296533868575e-09
92		1.698243652461753e+00,0.000000000000000e+00
	-8.386423900102518e+00,5.386212998151589e-09
93		1.708047720059717e+00,0.000000000000000e+00
	-8.386423900102518e+00,5.417307945130700e-09
94		1.717908387157597e+00,0.000000000000000e+00
	-8.386423900102518e+00,5.448582405197757e-09
95		1.727825980507873e+00,0.000000000000000e+00
	-8.386423900102518e+00,5.480037414693127e-09
96		1.737800828749385e+00,0.000000000000000e+00
	-8.386423900102518e+00,5.511674015940032e-09
97		1.747833262418228e+00,0.000000000000000e+00
	-8.386423900102518e+00,5.543493257279100e-09
98		1.757923613958702e+00,0.000000000000000e+00
	-8.386423900102518e+00,5.575496193103084e-09
99		1.768072217734330e+00,0.000000000000000e+00
	-8.386423900102518e+00,5.607683883891820e-09
100		1.778279410038933e+00,0.000000000000000e+00
	-8.386423900102518e+00,5.640057396247359e-09
101		1.788545529107782e+00,0.000000000000000e+00
	-8.386423900102518e+00,5.672617802929316e-09
102		1.798870915128798e+00,0.000000000000000e+00
	-8.386423900102518e+00,5.705366182890407e-09
103		1.809255910253831e+00,0.000000000000000e+00
	-8.386423900102518e+00,5.738303621312221e-09
104		1.819700858609994e+00,0.000000000000000e+00
	-8.386423900102518e+00,5.771431209641161e-09
105		1.830206106311067e+00,0.000000000000000e+00
	-8.386423900102518e+00,5.804750045624617e-09
106		1.840772001468967e+00,0.000000000000000e+00
	-8.386423900102518e+00,5.838261233347352e-09
107		1.851398894205283e+00,0.000000000000000e+00
	-8.386423900102518e+00,5.871965883268073e-09
108		1.862087136662879e+00,0.000000000000000e+00
	-8.386423900102518e+00,5.905865112256238e-09
109		1.872837083017560e+00,0.000000000000000e+00
	-8.386423900102518e+00,5.939960043629060e-09
110		1.883649089489812e+00,0.000000000000000e+00
	-8.386423900102518e+00,5.974251807188739e-09
111		1.894523514356604e+00,0.000000000000000e+00
	-8.386423900102518e+00,6.008741539259888e-09
112		1.905460717963259e+00,0.000000000000000e+00
	-8.386423900102518e+00,6.043430382727197e-09
113		1.916461062735399e+00,0.000000000000000e+00
	-8.386423900102518e+00,6.078319487073302e-09
114		1.927524913190948e+00,0.000000000000000e+00
	-8.386423900102518e+00,6.113410008416869e-09
115		1.938652635952220e+00,0.000000000000000e+00
	-8.386423900102518e+00,6.148703109550918e-09
116		1.949844599758058e+00,0.000000000000000e+00
	-8.386423900102518e+00,6.184199959981338e-09
117		1.961101175476061e+00,0.000000000000000e+00
	-8.386423900102518e+00,6.219901735965658e-09
118		1.972422736114867e+00,0.000000000000000e+00
	-8.386423900102518e+00,6.255809620552010e-09
119		1.983809656836519e+00,0.000000000000000e+00
	-8.386423900102518e+00,6.291924803618337e-09
120		1.995262314968893e+00,0.000000000000000e+00
	-8.386423900102518e+00,6.328248481911825e-09
121		2.006781090018203e+00,0.000000000000000e+00
	-8.386423900102518e+00,6.364781859088558e-09
122		2.018366363681575e+00,0.000000000000000e+00
	-8.386423900102518e+00,6.401526145753397e-09
123		2.030018519859698e+00,0.000000000000000e+00
	-8.386423900102518e+00,6.438482559500105e-09
124		2.041737944669544e+00,0.000000000000000e+00
	-8.386423900102518e+00,6.475652324951694e-09
125		2.053525026457161e+00,0.000000000000000e+00
	-8.386423900102518e+00,6.513036673800993e-09
126		2.065380155810544e+00,0.000000000000000e+00
	-8.386423900102518e+00,6.550636844851478e-09
127		2.077303725572579e+00,0.000000000000000e+00
	-8.386423900102518e+00,6.588454084058315e-09
128		2.089296130854055e+00,0.000000000000000e+00
	-8.386423900102518e+00,6.626489644569642e-09
129		2.101357769046763e+00,0.000000000000000e+00
	-8.386423900102518e+00,6.664744786768109e-09
130		2.113489039836662e+00,0.000000000000000e+00
	-8.386423900102518e+00,6.703220778312628e-09
131		2.125690345217123e+00,0.000000000000000e+00
	-8.386423900102518e+00,6.741918894180388e-09
132		2.137962089502248e+00,0.000000000000000e+00
	-8.386423900102518e+00,6.780840416709102e-09
133		2.150304679340273e+00,0.000000000000000e+00
	-8.386423900102518e+00,6.819986635639496e-09
134		2.162718523727037e+00,0.000000000000000e+00
	-8.386423900102518e+00,6.859358848158056e-09
135		2.175204034019540e+00,0.000000000000000e+00
	-8.386423900102518e+00,6.898958358940005e-09
136		2.187761623949570e+00,0.000000000000000e+00
	-8.386423900102518e+00,6.938786480192536e-09
137		2.200391709637416e+00,0.000000000000000e+00
	-8.386423900102518e+00,6.978844531698296e-09
138		2.213094709605655e+00,0.000000000000000e+00
	-8.386423900102518e+00,7.019133840859128e-09
139		2.225871044793023e+00,0.000000000000000e+00
	-8.386423900102518e+00,7.059655742740040e-09
140		2.238721138568358e+00,0.000000000000000e+00
	-8.386423900102518e+00,7.100411580113464e-09
141		2.251645416744636e+00,0.000000000000000e+00
	-8.386423900102518e+00,7.141402703503730e-09
142		2.264644307593079e+00,0.000000000000000e+00
	-8.386423900102518e+00,7.182630471231842e-09
143		2.277718241857341e+00,0.000000000000000e+00
	-8.386423900102518e+00,7.224096249460468e-09
144		2.290867652767792e+00,0.000000000000000e+00
	-8.386423900102518e+00,7.265801412239224e-09
145		2.304092976055865e+00,0.000000000000000e+00
	-8.386423900102518e+00,7.307747341550200e-09
146		2.317394649968498e+00,0.000000000000000e+00
	-8.386423900102518e+00,7.349935427353756e-09
147		2.330773115282658e+00,0.000000000000000e+00
	-8.386423900102518e+00,7.392367067634577e-09
148		2.344228815319942e+00,0.000000000000000e+00
	-8.386423900102518e+00,7.435043668448007e-09
149		2.357762195961275e+00,0.000000000000000e+00
	-8.386423900102518e+00,7.477966643966633e-09
150		2.371373705661676e+00,0.000000000000000e+00
	-8.386423900102518e+00,7.521137416527150e-09
151		2.385063795465127e+00,0.000000000000000e+00
	-8.386423900102518e+00,7.564557416677493e-09
152		2.398832919019512e+00,0.000000000000000e+00
	-8.386423900102518e+00,7.608228083224239e-09
153		2.412681532591656e+00,0.000000000000000e+00
	-8.386423900102518e+00,7.652150863280288e-09
154		2.426610095082438e+00,0.000000000000000e+00
	-8.386423900102518e+00,7.696327212312812e-09
155		2.440619068042003e+00,0.000000000000000e+00
	-8.386423900102518e+00,7.740758594191487e-09
156		2.454708915685053e+00,0.000000000000000e+00
	-8.386423900102518e+00,7.785446481236999e-09
157		2.468880104906232e+00,0.000000000000000e+00
	-8.386423900102518e+00,7.830392354269845e-09
158		2.483133105295594e+00,0.000000000000000e+00
	-8.386423900102518e+00,7.875597702659374e-09
159		2.497468389154167e+00,0.000000000000000e+00
	-8.386423900102518e+00,7.921064024373170e-09
160		2.511886431509604e+00,0.000000000000000e+00
	-8.386423900102518e+00,7.966792826026680e-09
161		2.526387710131921e+00,0.000000000000000e+00
	-8.386423900102518e+00,8.012785622933129e-09
162		2.540972705549330e+00,0.000000000000000e+00
	-8.386423900102518e+00,8.059043939153744e-09
163		2.555641901064163e+00,0.000000000000000e+00
	-8.386423900102518e+00,8.105569307548256e-09
164		2.570395782768889e+00,0.000000000000000e+00
	-8.386423900102518e+00,8.152363269825690e-09
165		2.585234839562216e+00,0.000000000000000e+00
	-8.386423900102518e+00,8.199427376595451e-09
166		2.600159563165298e+00,0.000000000000000e+00
	-8.386423900102518e+00,8.246763187418712e-09
167		2.615170448138023e+00,0.000000000000000e+00
	-8.386423900102518e+00,8.294372270860097e-09
168		2.630267991895408e+00,0.000000000000000e+00
	-8.386423900102518e+00,8.342256204539643e-09
169		2.645452694724076e+00,0.000000000000000e+00
	-8.386423900102518e+00,8.390416575185093e-09
170		2.660725059798836e+00,0.000000000000000e+00
	-8.386423900102518e+00,8.438854978684466e-09
171		2.676085593199359e+00,0.000000000000000e+00
	-8.386423900102518e+00,8.487573020138945e-09
172		2.691534803926943e+00,0.000000000000000e+00
	-8.386423900102518e+00,8.536572313916061e-09
173		2.707073203921385e+00,0.000000000000000e+00
	-8.386423900102518e+00,8.585854483703192e-09
174		2.722701308077940e+00,0.000000000000000e+00
	-8.386423900102518e+00,8.635421162561368e-09
175		2.738419634264389e+00,0.000000000000000e+00
	-8.386423900102518e+00,8.685273992979378e-09
176		2.754228703338195e+00,0.000000000000000e+00
	-8.386423900102518e+00,8.735414626928206e-09
177		2.770129039163762e+00,0.000000000000000e+00
	-8.386423900102518e+00,8.785844725915772e-09
178		2.786121168629800e+00,0.000000000000000e+00
	-8.386423900102518e+00,8.836565961041974e-09
179		2.802205621666776e+00,0.000000000000000e+00
	-8.386423900102518e+00,8.887580013054085e-09
180		2.818382931264483e+00,0.000000000000000e+00
	-8.386423900102518e+00,8.938888572402436e-09
181		2.834653633489697e+00,0.000000000000000e+00
	-8.386423900102518e+00,8.990493339296434e-09
182		2.851018267503939e+00,0.000000000000000e+00
	-8.386423900102518e+00,9.042396023760898e-09
183		2.867477375581346e+00,0.000000000000000e+00
	-8.386423900102518e+00,9.094598345692738e-09
184		2.884031503126637e+00,0.000000000000000e+00
	-8.386423900102518e+00,9.147102034917926e-09
185		2.900681198693185e+00,0.000000000000000e+00
	-8.386423900102518e+00,9.199908831248839e-09
186		2.917427014001198e+00,0.000000000000000e+00
	-8.386423900102518e+00,9.253020484541885e-09
187		2.934269503956000e+00,0.000000000000000e+00
	-8.386423900102518e+00,9.306438754755522e-09
188		2.951209226666418e+00,0.000000000000000e+00
	-8.386423900102518e+00,9.360165412008544e-09
189		2.968246743463274e+00,0.000000000000000e+00
	-8.386423900102518e+00,9.414202236638762e-09
190		2.985382618917992e+00,0.000000000000000e+00
	-8.386423900102518e+00,9.468551019261980e-09
191		3.002617420861300e+00,0.000000000000000e+00
	-8.386423900102518e+00,9.523213560831354e-09
192		3.019951720402049e+00,0.000000000000000e+00
	-8.386423900102518e+00,9.578191672697041e-09
193		3.037386091946138e+00,0.000000000000000e+00
	-8.386423900102518e+00,9.633487176666248e-09
194		3.054921113215547e+00,0.000000000000000e+00
	-8.386423900102518e+00,9.689101905063579e-09
195		3.072557365267481e+00,0.000000000000000e+00
	-8.386423900102518e+00,9.745037700791775e-09
196		3.090295432513625e+00,0.000000000000000e+00
	-8.386423900102518e+00,9.801296417392761e-09
197		3.108135902739511e+00,0.000000000000000e+00
	-8.386423900102518e+00,9.857879919109081e-09
198		3.126079367123991e+00,0.000000000000000e+00
	-8.386423900102518e+00,9.914790080945667e-09
199		3.144126420258832e+00,0.000000000000000e+00
	-8.386423900102518e+00,9.972028788731978e-09
200		3.162277660168416e+00,0.000000000000000e+00
	-8.386423900102518e+00,1.002959793918448e-08
201		3.180533688329558e+00,0.000000000000000e+00
	-8.386423900102518e+00,1.008749943996949e-08
202		3.198895109691435e+00,0.000000000000000e+00
	-8.386423900102518e+00,1.014573520976644e-08
203		3.217362532695637e+00,0.000000000000000e+00
	-8.386423900102518e+00,1.020430717833137e-08
204		3.235936569296321e+00,0.000000000000000e+00
	-8.386423900102518e+00,1.026321728656097e-08
205		3.254617834980497e+00,0.000000000000000e+00
	-8.386423900102518e+00,1.032246748655681e-08
206		3.273406948788421e+00,0.000000000000000e+00
	-8.386423900102518e+00,1.038205974169010e-08
207		3.292304533334104e+00,0.000000000000000e+00
	-8.386423900102518e+00,1.044199602666669e-08
208		3.311311214825951e+00,0.000000000000000e+00
	-8.386423900102518e+00,1.050227832759254e-08
209		3.330427623087504e+00,0.000000000000000e+00
	-8.386423900102518e+00,1.056290864203952e-08
210		3.349654391578317e+00,0.000000000000000e+00
	-8.386423900102518e+00,1.062388897911162e-08
211		3.368992157414949e+00,0.000000000000000e+00
	-8.386423900102518e+00,1.068522135951151e-08
212		3.388441561392067e+00,0.000000000000000e+00
	-8.386423900102518e+00,1.074690781560749e-08
213		3.408003248003692e+00,0.000000000000000e+00
	-8.386423900102518e+00,1.080895039150086e-08
214		3.427677865464546e+00,0.000000000000000e+00
	-8.386423900102518e+00,1.087135114309366e-08
215		3.447466065731537e+00,0.000000000000000e+00
	-8.386423900102518e+00,1.093411213815676e-08
216		3.467368504525360e+00,0.000000000000000e+00
	-8.386423900102518e+00,1.099723545639841e-08
217		3.487385841352228e+00,0.000000000000000e+00
	-8.386423900102518e+00,1.106072318953315e-08
218		3.507518739525725e+00,0.000000000000000e+00
	-8.386423900102518e+00,1.112457744135111e-08
219		3.527767866188785e+00,0.000000000000000e+00
	-8.386423900102518e+00,1.118880032778775e-08
220		3.548133892335800e+00,0.000000000000000e+00
	-8.386423900102518e+00,1.125339397699394e-08
221		3.568617492834858e+00,0.000000000000000e+00
	-8.386423900102518e+00,1.131836052940651e-08
222		3.589219346450099e+00,0.000000000000000e+00
	-8.386423900102518e+00,1.138370213781916e-08
223		3.609940135864213e+00,0.000000000000000e+00
	-8.386423900102518e+00,1.144942096745381e-08
224		3.630780547701061e+00,0.000000000000000e+00
	-8.386423900102518e+00,1.151551919603235e-08
225		3.651741272548425e+00,0.000000000000000e+00
	-8.386423900102518e+00,1.158199901384877e-08
226		3.672823004980895e+00,0.000000000000000e+00
	-8.386423900102518e+00,1.164886262384179e-08
227		3.694026443582883e+00,0.000000000000000e+00
	-8.386423900102518e+00,1.171611224166782e-08
228		3.715352290971774e+00,0.000000000000000e+00
	-8.386423900102518e+00,1.178375009577441e-08
229		3.736801253821207e+00,0.000000000000000e+00
	-8.386423900102518e+00,1.185177842747405e-08
230		3.758374042884492e+00,0.000000000000000e+00
	-8.386423900102518e+00,1.192019949101850e-08
231		3.780071373018162e+00,0.000000000000000e+00
	-8.386423900102518e+00,1.198901555367344e-08
232		3.801893963205663e+00,0.000000000000000e+00
	-8.386423900102518e+00,1.205822889579362e-08
233		3.823842536581178e+00,0.000000000000000e+00
	-8.386423900102518e+00,1.212784181089842e-08
234		3.845917820453588e+00,0.000000000000000e+00
	-8.386423900102518e+00,1.219785660574785e-08
235		3.868120546330575e+00,0.000000000000000e+00
	-8.386423900102518e+00,1.226827560041900e-08
236		3.890451449942860e+00,0.000000000000000e+00
	-8.386423900102518e+00,1.233910112838291e-08
237		3.912911271268584e+00,0.000000000000000e+00
	-8.386423900102518e+00,1.241033553658188e-08
238		3.935500754557829e+00,0.000000000000000e+00
	-8.386423900102518e+00,1.248198118550728e-08
239		3.958220648357280e+00,0.000000000000000e+00
	-8.386423900102518e+00,1.255404044927773e-08
240		3.981071705535028e+00,0.000000000000000e+00
	-8.386423900102518e+00,1.262651571571778e-08
241		4.004054683305520e+00,0.000000000000000e+00
	-8.386423900102518e+00,1.269940938643706e-08
242		4.027170343254648e+00,0.000000000000000e+00
	-8.386423900102518e+00,1.277272387690982e-08
243		4.050419451364989e+00,0.000000000000000e+00
	-8.386423900102518e+00,1.284646161655503e-08
244		4.073802778041185e+00,0.000000000000000e+00
	-8.386423900102518e+00,1.292062504881681e-08
245		4.097321098135473e+00,0.000000000000000e+00
	-8.386423900102518e+00,1.299521663124547e-08
246		4.120975190973360e+00,0.000000000000000e+00
	-8.386423900102518e+00,1.307023883557889e-08
247		4.144765840379450e+00,0.000000000000000e+00
	-8.386423900102518e+00,1.314569414782445e-08
248		4.168693834703413e+00,0.000000000000000e+00
	-8.386423900102518e+00,1.322158506834142e-08
249		4.192759966846114e+00,0.000000000000000e+00
	-8.386423900102518e+00,1.329791411192380e-08
250		4.216965034285883e+00,0.000000000000000e+00
	-8.386423900102518e+00,1.337468380788364e-08
251		4.241309839104942e+00,0.000000000000000e+00
	-8.386423900102518e+00,1.345189670013488e-08
252		4.265795188015987e+00,0.000000000000000e+00
	-8.386423900102518e+00,1.352955534727764e-08
253		4.290421892388916e+00,0.000000000000000e+00
	-8.386423900102518e+00,1.360766232268297e-08
254		4.315190768277715e+00,0.000000000000000e+00
	-8.386423900102518e+00,1.368622021457820e-08
255		4.340102636447502e+00,0.000000000000000e+00
	-8.386423900102518e+00,1.376523162613263e-08
256		4.365158322401724e+00,0.000000000000000e+00
	-8.386423900102518e+00,1.384469917554382e-08
257		4.390358656409512e+00,0.000000000000000e+00
	-8.386423900102518e+00,1.392462549612435e-08
258		4.415704473533191e+00,0.000000000000000e+00
	-8.386423900102518e+00,1.400501323638908e-08
259		4.441196613655956e+00,0.000000000000000e+00
	-8.386423900102518e+00,1.408586506014294e-08
260		4.466835921509698e+00,0.000000000000000e+00
	-8.386423900102518e+00,1.416718364656912e-08
261		4.492623246703002e+00,0.000000000000000e+00
	-8.386423900102518e+00,1.424897169031797e-08
262		4.518559443749292e+00,0.000000000000000e+00
	-8.386423900102518e+00,1.433123190159616e-08
263		4.544645372095157e+00,0.000000000000000e+00
	-8.386423900102518e+00,1.441396700625659e-08
264		4.570881896148820e+00,0.000000000000000e+00
	-8.386423900102518e+00,1.449717974588869e-08
265		4.597269885308792e+00,0.000000000000000e+00
	-8.386423900102518e+00,1.458087287790923e-08
266		4.623810213992674e+00,0.000000000000000e+00
	-8.386423900102518e+00,1.466504917565374e-08
267		4.650503761666135e+00,0.000000000000000e+00
	-8.386423900102518e+00,1.474971142846838e-08
268		4.677351412872055e+00,0.000000000000000e+00
	-8.386423900102518e+00,1.483486244180238e-08
269		4.704354057259835e+00,0.000000000000000e+00
	-8.386423900102518e+00,1.492050503730103e-08
270		4.731512589614879e+00,0.000000000000000e+00
	-8.386423900102518e+00,1.500664205289912e-08
271		4.758827909888244e+00,0.000000000000000e+00
	-8.386423900102518e+00,1.509327634291505e-08
272		4.786300923226460e+00,0.000000000000000e+00
	-8.386423900102518e+00,1.518041077814534e-08
273		4.813932540001524e+00,0.000000000000000e+00
	-8.386423900102518e+00,1.526804824595984e-08
274		4.841723675841071e+00,0.000000000000000e+00
	-8.386423900102518e+00,1.535619165039735e-08
275		4.869675251658710e+00,0.000000000000000e+00
	-8.386423900102518e+00,1.544484391226186e-08
276		4.897788193684542e+00,0.000000000000000e+00
	-8.386423900102518e+00,1.553400796921936e-08
277		4.926063433495853e+00,0.000000000000000e+00
	-8.386423900102518e+00,1.562368677589517e-08
278		4.954501908047983e+00,0.000000000000000e+00
	-8.386423900102518e+00,1.571388330397184e-08
279		4.983104559705377e+00,0.000000000000000e+00
	-8.386423900102518e+00,1.580460054228764e-08
280		5.011872336272805e+00,0.000000000000000e+00
	-8.386423900102518e+00,1.589584149693557e-08
281		5.040806191026777e+00,0.000000000000000e+00
	-8.386423900102518e+00,1.598760919136302e-08
282		5.069907082747127e+00,0.000000000000000e+00
	-8.386423900102518e+00,1.607990666647193e-08
283		5.099175975748786e+00,0.000000000000000e+00
	-8.386423900102518e+00,1.617273698071954e-08
284		5.128613839913734e+00,0.000000000000000e+00
	-8.386423900102518e+00,1.626610321021978e-08
285		5.158221650723143e+00,0.000000000000000e+00
	-8.386423900102518e+00,1.636000844884516e-08
286		5.188000389289698e+00,0.000000000000000e+00
	-8.386423900102518e+00,1.645445580832931e-08
287		5.217951042390110e+00,0.000000000000000e+00
	-8.386423900102518e+00,1.654944841837012e-08
288		5.248074602497814e+00,0.000000000000000e+00
	-8.386423900102518e+00,1.664498942673338e-08
289		5.278372067815857e+00,0.000000000000000e+00
	-8.386423900102518e+00,1.674108199935719e-08
290		5.308844442309973e+00,0.000000000000000e+00
	-8.386423900102518e+00,1.683772932045674e-08
291		5.339492735741857e+00,0.000000000000000e+00
	-8.386423900102518e+00,1.693493459262995e-08
292		5.370317963702618e+00,0.000000000000000e+00
	-8.386423900102518e+00,1.703270103696352e-08
293		5.401321147646440e+00,0.000000000000000e+00
	-8.386423900102518e+00,1.713103189313968e-08
294		5.432503314924425e+00,0.000000000000000e+00
	-8.386423900102518e+00,1.722993041954357e-08
295		5.463865498818635e+00,0.000000000000000e+00
	-8.386423900102518e+00,1.732939989337116e-08
296		5.495408738576340e+00,0.000000000000000e+00
	-8.386423900102518e+00,1.742944361073791e-08
297		5.527134079444444e+00,0.000000000000000e+00
	-8.386423900102518e+00,1.753006488678794e-08
298		5.559042572704132e+00,0.000000000000000e+00
	-8.386423900102518e+00,1.763126705580393e-08
299		5.591135275705699e+00,0.000000000000000e+00
	-8.386423900102518e+00,1.773305347131756e-08
300		5.623413251903589e+00,0.000000000000000e+00
	-8.386423900102518e+00,1.783542750622067e-08
301		5.655877570891638e+00,0.000000000000000e+00
	-8.386423900102518e+00,1.793839255287702e-08
302		5.688529308438514e+00,0.000000000000000e+00
	-8.386423900102518e+00,1.804195202323469e-08
303		5.721369546523364e+00,0.000000000000000e+00
	-8.386423900102518e+00,1.814610934893916e-08
304		5.754399373371671e+00,0.000000000000000e+00
	-8.386423900102518e+00,1.825086798144702e-08
305		5.787619883491309e+00,0.000000000000000e+00
	-8.386423900102518e+00,1.835623139214032e-08
306		5.821032177708817e+00,0.000000000000000e+00
	-8.386423900102518e+00,1.846220307244163e-08
307		5.854637363205876e+00,0.000000000000000e+00
	-8.386423900102518e+00,1.856878653392973e-08
308		5.888436553555995e+00,0.000000000000000e+00
	-8.386423900102518e+00,1.867598530845593e-08
309		5.922430868761412e+00,0.000000000000000e+00
	-8.386423900102518e+00,1.878380294826119e-08
310		5.956621435290212e+00,0.000000000000000e+00
	-8.386423900102518e+00,1.889224302609374e-08
311		5.991009386113647e+00,0.000000000000000e+00
	-8.386423900102518e+00,1.900130913532753e-08
312		6.025595860743686e+00,0.000000000000000e+00
	-8.386423900102518e+00,1.911100489008128e-08