Title: * Amplificador CMOS – W=3.966777291513134e-05 L=5.776362553570232e-07 Vbias=0.8625689827713637
Date: Wed Jul 30 16:10:27 2025
Plotname: Operating Point
Flags: real
No. Variables: 12
No. Points:            1
Offset:    0.0000000000000000e+00
Command: Linear Technology Corporation LTspice
Variables:
	0	V(out)	voltage
	1	V(in)	voltage
	2	V(bias)	voltage
	3	V(vdd)	voltage
	4	Id(M1)	device_current
	5	Ig(M1)	device_current
	6	Ib(M1)	device_current
	7	Is(M1)	device_current
	8	I(Rload)	device_current
	9	I(Vbias)	device_current
	10	I(Vin)	device_current
	11	I(Vdd)	device_current
Values:
0		1.799999972525691e+00
	0.000000000000000e+00
	8.625689827713637e-01
	1.800000000000000e+00
	2.747430962280018e-12
	0.000000000000000e+00
	-2.682568955297054e-12
	-6.486200698296354e-14
	-2.747430949412433e-12
	6.486200698296314e-14
	0.000000000000000e+00
	-2.747430944858784e-12
