Title: * GA CMOS Amp | W=2.4440002573757037e-05 L=1e-06 Vbias=1.0613338047343408
Date: Sat Sep  6 22:07:22 2025
Plotname: AC Analysis
Flags: complex forward log
No. Variables: 13
No. Points:          901
Offset:    0.0000000000000000e+00
Command: Linear Technology Corporation LTspice
Variables:
	0	frequency	frequency
	1	V(out)	voltage
	2	V(g)	voltage
	3	V(vdd)	voltage
	4	V(m1#dbody)	voltage
	5	V(m1#sbody)	voltage
	6	Id(M1)	device_current
	7	Ig(M1)	device_current
	8	Ib(M1)	device_current
	9	Is(M1)	device_current
	10	I(Rload)	device_current
	11	I(Vg)	device_current
	12	I(Vdd)	device_current
Values:
0		1.000000000000000e+00,0.000000000000000e+00
	-8.777996491024805e-04,1.373396410622057e-09
	1.000000000000000e+00,0.000000000000000e+00
	0.000000000000000e+00,0.000000000000000e+00
	2.112720224085894e-05,1.129310829682463e-13
	2.112720224757035e-05,1.134170753048946e-13
	8.777996491024806e-08,-1.373396410622057e-13
	2.449292028714070e-05,6.306394166710353e-12
	-1.126784120677761e-05,-6.046449374739100e-14
	-1.331285904527333e-05,-6.108590031900756e-12
	-8.777996491024806e-08,1.373396410622057e-13
	-2.449292028716687e-05,-6.306394166710353e-12
	-8.777996491024806e-08,1.373396410622057e-13
1		1.023292992280754e+00,0.000000000000000e+00
	-8.777996491024805e-04,1.405386922613092e-09
	1.000000000000000e+00,0.000000000000000e+00
	0.000000000000000e+00,0.000000000000000e+00
	2.112720224085894e-05,1.155615858120829e-13
	2.112720224757035e-05,1.160588983644772e-13
	8.777996491024785e-08,-1.405386922613091e-13
	2.449292028714070e-05,6.453288957354929e-12
	-1.126784120677761e-05,-6.187289273350870e-14
	-1.331285904527333e-05,-6.250877372360111e-12
	-8.777996491024806e-08,1.405386922613092e-13
	-2.449292028716687e-05,-6.453288957354929e-12
	-8.777996491024806e-08,1.405386922613092e-13
2		1.047128548050899e+00,0.000000000000000e+00
	-8.777996491024804e-04,1.438122589352991e-09
	1.000000000000000e+00,0.000000000000000e+00
	0.000000000000000e+00,0.000000000000000e+00
	2.112720224085894e-05,1.182533609383554e-13
	2.112720224757035e-05,1.187622573881938e-13
	8.777996491024785e-08,-1.438122589352987e-13
	2.449292028714070e-05,6.603605367224072e-12
	-1.126784120677761e-05,-6.331409754633823e-14
	-1.331285904527333e-05,-6.396479010742436e-12
	-8.777996491024805e-08,1.438122589352992e-13
	-2.449292028716687e-05,-6.603605367224073e-12
	-8.777996491024805e-08,1.438122589352992e-13
3		1.071519305237606e+00,0.000000000000000e+00
	-8.777996491024803e-04,1.471620767725569e-09
	1.000000000000000e+00,0.000000000000000e+00
	0.000000000000000e+00,0.000000000000000e+00
	2.112720224085894e-05,1.210078355618657e-13
	2.112720224757035e-05,1.215285857327819e-13
	8.777996491024785e-08,-1.471620767725563e-13
	2.449292028714070e-05,6.757423096067968e-12
	-1.126784120677761e-05,-6.478887233174799e-14
	-1.331285904527333e-05,-6.545472146963664e-12
	-8.777996491024803e-08,1.471620767725569e-13
	-2.449292028716687e-05,-6.757423096067970e-12
	-8.777996491024803e-08,1.471620767725569e-13
4		1.096478196143185e+00,0.000000000000000e+00
	-8.777996491024802e-04,1.505899218908397e-09
	1.000000000000000e+00,0.000000000000000e+00
	0.000000000000000e+00,0.000000000000000e+00
	2.112720224085894e-05,1.238264701415190e-13
	2.112720224757035e-05,1.243593501421465e-13
	8.777996491024785e-08,-1.505899218908393e-13
	2.449292028714070e-05,6.914823700082468e-12
	-1.126784120677761e-05,-6.629799903485014e-14
	-1.331285904527333e-05,-6.697935779156779e-12
	-8.777996491024802e-08,1.505899218908397e-13
	-2.449292028716687e-05,-6.914823700082469e-12
	-8.777996491024802e-08,1.505899218908397e-13
5		1.122018454301963e+00,0.000000000000000e+00
	-8.777996491024800e-04,1.540976117790025e-09
	1.000000000000000e+00,0.000000000000000e+00
	0.000000000000000e+00,0.000000000000000e+00
	2.112720224085894e-05,1.267107591546785e-13
	2.112720224757035e-05,1.272560515250472e-13
	8.777996491024827e-08,-1.540976117790020e-13
	2.449292028714070e-05,7.075890635151266e-12
	-1.126784120677761e-05,-6.784227781459837e-14
	-1.331285904527334e-05,-6.853950745557666e-12
	-8.777996491024799e-08,1.540976117790025e-13
	-2.449292028716687e-05,-7.075890635151267e-12
	-8.777996491024799e-08,1.540976117790025e-13
6		1.148153621496882e+00,0.000000000000000e+00
	-8.777996491024798e-04,1.576870062606534e-09
	1.000000000000000e+00,0.000000000000000e+00
	0.000000000000000e+00,0.000000000000000e+00
	2.112720224085894e-05,1.296622318895569e-13
	2.112720224757035e-05,1.302202257508994e-13
	8.777996491024806e-08,-1.576870062606528e-13
	2.449292028714070e-05,7.240709301095304e-12
	-1.126784120677761e-05,-6.942252746804259e-14
	-1.331285904527334e-05,-7.013599767366609e-12
	-8.777996491024799e-08,1.576870062606535e-13
	-2.449292028716687e-05,-7.240709301095303e-12
	-8.777996491024799e-08,1.576870062606535e-13
7		1.174897554939529e+00,0.000000000000000e+00
	-8.777996491024797e-04,1.613600084802581e-09
	1.000000000000000e+00,0.000000000000000e+00
	0.000000000000000e+00,0.000000000000000e+00
	2.112720224085894e-05,1.326824532560656e-13
	2.112720224757035e-05,1.332534444641131e-13
	8.777996491024806e-08,-1.613600084802577e-13
	2.449292028714070e-05,7.409367086952903e-12
	-1.126784120677761e-05,-7.103958586446614e-14
	-1.331285904527334e-05,-7.176967492608179e-12
	-8.777996491024798e-08,1.613600084802581e-13
	-2.449292028716687e-05,-7.409367086952903e-12
	-8.777996491024798e-08,1.613600084802581e-13
8		1.202264434617413e+00,0.000000000000000e+00
	-8.777996491024796e-04,1.651185659122111e-09
	1.000000000000000e+00,0.000000000000000e+00
	0.000000000000000e+00,0.000000000000000e+00
	2.112720224085894e-05,1.357730246155507e-13
	2.112720224757035e-05,1.363573159173996e-13
	8.777996491024785e-08,-1.651185659122109e-13
	2.449292028714070e-05,7.581953417314568e-12
	-1.126784120677761e-05,-7.269431038963511e-14
	-1.331285904527334e-05,-7.344140541012723e-12
	-8.777996491024797e-08,1.651185659122111e-13
	-2.449292028716687e-05,-7.581953417314570e-12
	-8.777996491024797e-08,1.651185659122111e-13
9		1.230268770812381e+00,0.000000000000000e+00
	-8.777996491024794e-04,1.689646713934134e-09
	1.000000000000000e+00,0.000000000000000e+00
	0.000000000000000e+00,0.000000000000000e+00
	2.112720224085893e-05,1.389355846298554e-13
	2.112720224757035e-05,1.395334858244879e-13
	8.777996491024806e-08,-1.689646713934138e-13
	2.449292028714070e-05,7.758559799737115e-12
	-1.126784120677761e-05,-7.438757840039565e-14
	-1.331285904527334e-05,-7.515207549943305e-12
	-8.777996491024794e-08,1.689646713934134e-13
	-2.449292028716687e-05,-7.758559799737115e-12
	-8.777996491024794e-08,1.689646713934134e-13
10		1.258925411794167e+00,0.000000000000000e+00
	-8.777996491024793e-04,1.729003641799004e-09
	1.000000000000000e+00,0.000000000000000e+00
	0.000000000000000e+00,0.000000000000000e+00
	2.112720224085893e-05,1.421718101301607e-13
	2.112720224757035e-05,1.427836382327044e-13
	8.777996491024785e-08,-1.729003641798992e-13
	2.449292028714070e-05,7.939279873262161e-12
	-1.126784120677761e-05,-7.612028768986004e-14
	-1.331285904527334e-05,-7.690259221392402e-12
	-8.777996491024794e-08,1.729003641799004e-13
	-2.449292028716687e-05,-7.939279873262162e-12
	-8.777996491024794e-08,1.729003641799004e-13
11		1.288249551693134e+00,0.000000000000000e+00
	-8.777996491024792e-04,1.769277310280824e-09
	1.000000000000000e+00,0.000000000000000e+00
	0.000000000000000e+00,0.000000000000000e+00
	2.112720224085893e-05,1.454834170060634e-13
	2.112720224757035e-05,1.461094964158769e-13
	8.777996491024764e-08,-1.769277310280820e-13
	2.449292028714070e-05,8.124209458064804e-12
	-1.126784120677761e-05,-7.789335696342875e-14
	-1.331285904527334e-05,-7.869388370073294e-12
	-8.777996491024793e-08,1.769277310280824e-13
	-2.449292028716687e-05,-8.124209458064804e-12
	-8.777996491024793e-08,1.769277310280824e-13
12		1.318256738556407e+00,0.000000000000000e+00
	-8.777996491024790e-04,1.810489073011709e-09
	1.000000000000000e+00,0.000000000000000e+00
	0.000000000000000e+00,0.000000000000000e+00
	2.112720224085893e-05,1.488721611153633e-13
	2.112720224757035e-05,1.495128237880367e-13
	8.777996491024785e-08,-1.810489073011704e-13
	2.449292028714070e-05,8.313446606258735e-12
	-1.126784120677761e-05,-7.970772632589991e-14
	-1.331285904527334e-05,-8.052689972631666e-12
	-8.777996491024790e-08,1.810489073011709e-13
	-2.449292028716687e-05,-8.313446606258737e-12
	-8.777996491024790e-08,1.810489073011709e-13
13		1.348962882591653e+00,0.000000000000000e+00
	-8.777996491024789e-04,1.852660781013760e-09
	1.000000000000000e+00,0.000000000000000e+00
	0.000000000000000e+00,0.000000000000000e+00
	2.112720224085893e-05,1.523398392150427e-13
	2.112720224757035e-05,1.529954248384052e-13
	8.777996491024785e-08,-1.852660781013770e-13
	2.449292028714070e-05,8.507091653884787e-12
	-1.126784120677761e-05,-8.156435777992557e-14
	-1.331285904527334e-05,-8.240261218003484e-12
	-8.777996491024789e-08,1.852660781013760e-13
	-2.449292028716687e-05,-8.507091653884785e-12
	-8.777996491024789e-08,1.852660781013760e-13
14		1.380384264602885e+00,0.000000000000000e+00
	-8.777996491024787e-04,1.895814794284769e-09
	1.000000000000000e+00,0.000000000000000e+00
	0.000000000000000e+00,0.000000000000000e+00
	2.112720224085893e-05,1.558882899139300e-13
	2.112720224757035e-05,1.565591460881569e-13
	8.777996491024785e-08,-1.895814794284767e-13
	2.449292028714070e-05,8.705247274110389e-12
	-1.126784120677761e-05,-8.346423573607805e-14
	-1.331285904527334e-05,-8.432201558945835e-12
	-8.777996491024787e-08,1.895814794284770e-13
	-2.449292028716687e-05,-8.705247274110390e-12
	-8.777996491024787e-08,1.895814794284770e-13
15		1.412537544622754e+00,0.000000000000000e+00
	-8.777996491024784e-04,1.939973993653784e-09
	1.000000000000000e+00,0.000000000000000e+00
	0.000000000000000e+00,0.000000000000000e+00
	2.112720224085893e-05,1.595193946475551e-13
	2.112720224757035e-05,1.602058770694698e-13
	8.777996491024785e-08,-1.939973993653775e-13
	2.449292028714071e-05,8.908018531668301e-12
	-1.126784120677761e-05,-8.540836753479757e-14
	-1.331285904527334e-05,-8.628612764768126e-12
	-8.777996491024785e-08,1.939973993653784e-13
	-2.449292028716687e-05,-8.908018531668299e-12
	-8.777996491024785e-08,1.939973993653784e-13
16		1.445439770745927e+00,0.000000000000000e+00
	-8.777996491024782e-04,1.985161792912825e-09
	1.000000000000000e+00,0.000000000000000e+00
	0.000000000000000e+00,0.000000000000000e+00
	2.112720224085893e-05,1.632350786757112e-13
	2.112720224757035e-05,1.639375513273804e-13
	8.777996491024785e-08,-1.985161792912818e-13
	2.449292028714071e-05,9.115512938563261e-12
	-1.126784120677761e-05,-8.739778398049740e-14
	-1.331285904527334e-05,-8.829598975291483e-12
	-8.777996491024782e-08,1.985161792912825e-13
	-2.449292028716687e-05,-9.115512938563261e-12
	-8.777996491024782e-08,1.985161792912825e-13
17		1.479108388168207e+00,0.000000000000000e+00
	-8.777996491024780e-04,2.031402151231191e-09
	1.000000000000000e+00,0.000000000000000e+00
	0.000000000000000e+00,0.000000000000000e+00
	2.112720224085893e-05,1.670373121032528e-13
	2.112720224757035e-05,1.677561474449748e-13
	8.777996491024764e-08,-2.031402151231186e-13
	2.449292028714071e-05,9.327840511076330e-12
	-1.126784120677761e-05,-8.943353988811012e-14
	-1.331285904527334e-05,-9.035266756065101e-12
	-8.777996491024781e-08,2.031402151231191e-13
	-2.449292028716687e-05,-9.327840511076332e-12
	-8.777996491024781e-08,2.031402151231191e-13
18		1.513561248436208e+00,0.000000000000000e+00
	-8.777996491024778e-04,2.078719585858927e-09
	1.000000000000000e+00,0.000000000000000e+00
	0.000000000000000e+00,0.000000000000000e+00
	2.112720224085893e-05,1.709281109246718e-13
	2.112720224757035e-05,1.716636900924596e-13
	8.777996491024785e-08,-2.078719585858927e-13
	2.449292028714071e-05,9.545113828096938e-12
	-1.126784120677761e-05,-9.151671464236441e-14
	-1.331285904527334e-05,-9.245725154868680e-12
	-8.777996491024778e-08,2.078719585858927e-13
	-2.449292028716687e-05,-9.545113828096935e-12
	-8.777996491024778e-08,2.078719585858927e-13
19		1.548816618912481e+00,0.000000000000000e+00
	-8.777996491024776e-04,2.127139185126191e-09
	1.000000000000000e+00,0.000000000000000e+00
	0.000000000000000e+00,0.000000000000000e+00
	2.112720224085893e-05,1.749095380930040e-13
	2.112720224757035e-05,1.756622511006690e-13
	8.777996491024785e-08,-2.127139185126192e-13
	2.449292028714071e-05,9.767448090813717e-12
	-1.126784120677761e-05,-9.364841277008895e-14
	-1.331285904527334e-05,-9.461085759531010e-12
	-8.777996491024775e-08,2.127139185126191e-13
	-2.449292028716687e-05,-9.767448090813721e-12
	-8.777996491024775e-08,2.127139185126191e-13
20		1.584893192461113e+00,0.000000000000000e+00
	-8.777996491024774e-04,2.176686621745426e-09
	1.000000000000000e+00,0.000000000000000e+00
	0.000000000000000e+00,0.000000000000000e+00
	2.112720224085893e-05,1.789837046136347e-13
	2.112720224757035e-05,1.797539505595768e-13
	8.777996491024764e-08,-2.176686621745414e-13
	2.449292028714071e-05,9.994961183795710e-12
	-1.126784120677761e-05,-9.582976452584752e-14
	-1.331285904527334e-05,-9.681462757095321e-12
	-8.777996491024774e-08,2.176686621745426e-13
	-2.449292028716687e-05,-9.994961183795708e-12
	-8.777996491024774e-08,2.176686621745426e-13
21		1.621810097358929e+00,0.000000000000000e+00
	-8.777996491024771e-04,2.227388166423362e-09
	1.000000000000000e+00,0.000000000000000e+00
	0.000000000000000e+00,0.000000000000000e+00
	2.112720224085893e-05,1.831527706635808e-13
	2.112720224757035e-05,1.839409579423961e-13
	8.777996491024742e-08,-2.227388166423356e-13
	2.449292028714071e-05,1.022777373749630e-11
	-1.126784120677761e-05,-9.806192649121455e-14
	-1.331285904527334e-05,-9.906972994362750e-12
	-8.777996491024772e-08,2.227388166423362e-13
	-2.449292028716687e-05,-1.022777373749630e-11
	-8.777996491024772e-08,2.227388166423362e-13
22		1.659586907437560e+00,0.000000000000000e+00
	-8.777996491024768e-04,2.279270701790105e-09
	1.000000000000000e+00,0.000000000000000e+00
	0.000000000000000e+00,0.000000000000000e+00
	2.112720224085892e-05,1.874189467368464e-13
	2.112720224757034e-05,1.882254932558629e-13
	8.777996491024785e-08,-2.279270701790098e-13
	2.449292028714071e-05,1.046600919221310e-11
	-1.126784120677761e-05,-1.003460821880103e-13
	-1.331285904527335e-05,-1.013773603984608e-11
	-8.777996491024769e-08,2.279270701790105e-13
	-2.449292028716687e-05,-1.046600919221310e-11
	-8.777996491024769e-08,2.279270701790105e-13
23		1.698243652461743e+00,0.000000000000000e+00
	-8.777996491024766e-04,2.332361736652651e-09
	1.000000000000000e+00,0.000000000000000e+00
	0.000000000000000e+00,0.000000000000000e+00
	2.112720224085892e-05,1.917844948164548e-13
	2.112720224757034e-05,1.926098282173128e-13
	8.777996491024764e-08,-2.332361736652651e-13
	2.449292028714071e-05,1.070979386353762e-11
	-1.126784120677761e-05,-1.026834427058196e-13
	-1.331285904527335e-05,-1.037387424716654e-11
	-8.777996491024766e-08,2.332361736652651e-13
	-2.449292028716687e-05,-1.070979386353762e-11
	-8.777996491024766e-08,2.332361736652651e-13
24		1.737800828749374e+00,0.000000000000000e+00
	-8.777996491024763e-04,2.386689420580426e-09
	1.000000000000000e+00,0.000000000000000e+00
	0.000000000000000e+00,0.000000000000000e+00
	2.112720224085892e-05,1.962517295737828e-13
	2.112720224757034e-05,1.970962874591760e-13
	8.777996491024764e-08,-2.386689420580431e-13
	2.449292028714071e-05,1.095925700932947e-11
	-1.126784120677761e-05,-1.050752473441275e-13
	-1.331285904527335e-05,-1.061551281992730e-11
	-8.777996491024764e-08,2.386689420580427e-13
	-2.449292028716687e-05,-1.095925700932947e-11
	-8.777996491024764e-08,2.386689420580427e-13
25		1.778279410038922e+00,0.000000000000000e+00
	-8.777996491024759e-04,2.442282558830564e-09
	1.000000000000000e+00,0.000000000000000e+00
	0.000000000000000e+00,0.000000000000000e+00
	2.112720224085892e-05,2.008230195958296e-13
	2.112720224757034e-05,2.016872497615280e-13
	8.777996491024764e-08,-2.442282558830558e-13
	2.449292028714071e-05,1.121453089825058e-11
	-1.126784120677761e-05,-1.075227642694126e-13
	-1.331285904527335e-05,-1.086277987809811e-11
	-8.777996491024760e-08,2.442282558830564e-13
	-2.449292028716687e-05,-1.121453089825058e-11
	-8.777996491024760e-08,2.442282558830564e-13
26		1.819700858609982e+00,0.000000000000000e+00
	-8.777996491024756e-04,2.499170627620825e-09
	1.000000000000000e+00,0.000000000000000e+00
	0.000000000000000e+00,0.000000000000000e+00
	2.112720224085892e-05,2.055007886410729e-13
	2.112720224757034e-05,2.063851493133496e-13
	8.777996491024764e-08,-2.499170627620815e-13
	2.449292028714071e-05,1.147575087989581e-11
	-1.126784120677761e-05,-1.100272911875453e-13
	-1.331285904527335e-05,-1.111580652594618e-11
	-8.777996491024757e-08,2.499170627620825e-13
	-2.449292028716687e-05,-1.147575087989581e-11
	-8.777996491024757e-08,2.499170627620825e-13
27		1.862087136662866e+00,0.000000000000000e+00
	-8.777996491024752e-04,2.557383789758284e-09
	1.000000000000000e+00,0.000000000000000e+00
	0.000000000000000e+00,0.000000000000000e+00
	2.112720224085892e-05,2.102875169245783e-13
	2.112720224757034e-05,2.111924770031678e-13
	8.777996491024742e-08,-2.557383789758280e-13
	2.449292028714071e-05,1.174305545655708e-11
	-1.126784120677761e-05,-1.125901560318491e-13
	-1.331285904527335e-05,-1.137472692154940e-11
	-8.777996491024752e-08,2.557383789758284e-13
	-2.449292028716687e-05,-1.174305545655708e-11
	-8.777996491024752e-08,2.557383789758284e-13
28		1.905460717963246e+00,0.000000000000000e+00
	-8.777996491024749e-04,2.616952910632049e-09
	1.000000000000000e+00,0.000000000000000e+00
	0.000000000000000e+00,0.000000000000000e+00
	2.112720224085892e-05,2.151857424330415e-13
	2.112720224757034e-05,2.161117817397559e-13
	8.777996491024742e-08,-2.616952910632058e-13
	2.449292028714071e-05,1.201658635665913e-11
	-1.126784120677761e-05,-1.152127176671878e-13
	-1.331285904527335e-05,-1.163967834792874e-11
	-8.777996491024749e-08,2.616952910632049e-13
	-2.449292028716687e-05,-1.201658635665913e-11
	-8.777996491024749e-08,2.616952910632049e-13
29		1.949844599758044e+00,0.000000000000000e+00
	-8.777996491024745e-04,2.677909574578499e-09
	1.000000000000000e+00,0.000000000000000e+00
	0.000000000000000e+00,0.000000000000000e+00
	2.112720224085892e-05,2.201980622704627e-13
	2.112720224757034e-05,2.211456718036001e-13
	8.777996491024721e-08,-2.677909574578488e-13
	2.449292028714071e-05,1.229648860990581e-11
	-1.126784120677761e-05,-1.178963666104544e-13
	-1.331285904527335e-05,-1.191080128583751e-11
	-8.777996491024746e-08,2.677909574578499e-13
	-2.449292028716687e-05,-1.229648860990581e-11
	-8.777996491024746e-08,2.677909574578499e-13
30		1.995262314968878e+00,0.000000000000000e+00
	-8.777996491024741e-04,2.740286101627713e-09
	1.000000000000000e+00,0.000000000000000e+00
	0.000000000000000e+00,0.000000000000000e+00
	2.112720224085892e-05,2.253271340351655e-13
	2.112720224757034e-05,2.262968162298435e-13
	8.777996491024721e-08,-2.740286101627703e-13
	2.449292028714071e-05,1.258291062417672e-11
	-1.126784120677760e-05,-1.206425257678406e-13
	-1.331285904527335e-05,-1.218823948824611e-11
	-8.777996491024741e-08,2.740286101627713e-13
	-2.449292028716687e-05,-1.258291062417672e-11
	-8.777996491024741e-08,2.740286101627713e-13
31		2.041737944669527e+00,0.000000000000000e+00
	-8.777996491024738e-04,2.804115564639985e-09
	1.000000000000000e+00,0.000000000000000e+00
	0.000000000000000e+00,0.000000000000000e+00
	2.112720224085892e-05,2.305756772288911e-13
	2.112720224757034e-05,2.315679462234445e-13
	8.777996491024721e-08,-2.804115564639986e-13
	2.449292028714071e-05,1.287600426421509e-11
	-1.126784120677760e-05,-1.234526511892816e-13
	-1.331285904527335e-05,-1.247214005656181e-11
	-8.777996491024738e-08,2.804115564639985e-13
	-2.449292028716687e-05,-1.287600426421509e-11
	-8.777996491024738e-08,2.804115564639985e-13
32		2.089296130854037e+00,0.000000000000000e+00
	-8.777996491024733e-04,2.869431806841487e-09
	1.000000000000000e+00,0.000000000000000e+00
	0.000000000000000e+00,0.000000000000000e+00
	2.112720224085892e-05,2.359464746987133e-13
	2.112720224757034e-05,2.369618566072973e-13
	8.777996491024700e-08,-2.869431806841479e-13
	2.449292028714071e-05,1.317592493214841e-11
	-1.126784120677760e-05,-1.263282328404722e-13
	-1.331285904527336e-05,-1.276265351862379e-11
	-8.777996491024734e-08,2.869431806841487e-13
	-2.449292028716687e-05,-1.317592493214841e-11
	-8.777996491024734e-08,2.869431806841487e-13
33		2.137962089502230e+00,0.000000000000000e+00
	-8.777996491024729e-04,2.936269459768396e-09
	1.000000000000000e+00,0.000000000000000e+00
	0.000000000000000e+00,0.000000000000000e+00
	2.112720224085891e-05,2.414423741125416e-13
	2.112720224757033e-05,2.424814073040843e-13
	8.777996491024721e-08,-2.936269459768404e-13
	2.449292028714071e-05,1.348283164988474e-11
	-1.126784120677760e-05,-1.292707953928666e-13
	-1.331285904527336e-05,-1.305993390851503e-11
	-8.777996491024729e-08,2.936269459768396e-13
	-2.449292028716687e-05,-1.348283164988474e-11
	-8.777996491024729e-08,2.936269459768396e-13
34		2.187761623949550e+00,0.000000000000000e+00
	-8.777996491024725e-04,3.004663961628995e-09
	1.000000000000000e+00,0.000000000000000e+00
	0.000000000000000e+00,0.000000000000000e+00
	2.112720224085891e-05,2.470662894689920e-13
	2.112720224757033e-05,2.481295248526446e-13
	8.777996491024700e-08,-3.004663961628991e-13
	2.449292028714071e-05,1.379688714342821e-11
	-1.126784120677760e-05,-1.322818990320796e-13
	-1.331285904527336e-05,-1.336413884823323e-11
	-8.777996491024725e-08,3.004663961628995e-13
	-2.449292028716687e-05,-1.379688714342821e-11
	-8.777996491024725e-08,3.004663961628995e-13
35		2.238721138568337e+00,0.000000000000000e+00
	-8.777996491024719e-04,3.074651576093479e-09
	1.000000000000000e+00,0.000000000000000e+00
	0.000000000000000e+00,0.000000000000000e+00
	2.112720224085891e-05,2.528212026424278e-13
	2.112720224757033e-05,2.539092039596645e-13
	8.777996491024721e-08,-3.074651576093473e-13
	2.449292028714072e-05,1.411825792915852e-11
	-1.126784120677760e-05,-1.353631402851173e-13
	-1.331285904527336e-05,-1.367542963126405e-11
	-8.777996491024720e-08,3.074651576093479e-13
	-2.449292028716687e-05,-1.411825792915852e-11
	-8.777996491024720e-08,3.074651576093479e-13
36		2.290867652767770e+00,0.000000000000000e+00
	-8.777996491024715e-04,3.146269411521433e-09
	1.000000000000000e+00,0.000000000000000e+00
	0.000000000000000e+00,0.000000000000000e+00
	2.112720224085891e-05,2.587101649639888e-13
	2.112720224757033e-05,2.598235090875094e-13
	8.777996491024679e-08,-3.146269411521431e-13
	2.449292028714072e-05,1.444711440212011e-11
	-1.126784120677760e-05,-1.385161528668772e-13
	-1.331285904527336e-05,-1.399397130810108e-11
	-8.777996491024716e-08,3.146269411521433e-13
	-2.449292028716687e-05,-1.444711440212011e-11
	-8.777996491024716e-08,3.146269411521433e-13
37		2.344228815319919e+00,0.000000000000000e+00
	-8.777996491024710e-04,3.219555440637175e-09
	1.000000000000000e+00,0.000000000000000e+00
	0.000000000000000e+00,0.000000000000000e+00
	2.112720224085891e-05,2.647362988394477e-13
	2.112720224757033e-05,2.658755760790432e-13
	8.777996491024700e-08,-3.219555440637155e-13
	2.449292028714072e-05,1.478363092636786e-11
	-1.126784120677760e-05,-1.417426085463652e-13
	-1.331285904527336e-05,-1.431993277375778e-11
	-8.777996491024709e-08,3.219555440637175e-13
	-2.449292028716687e-05,-1.478363092636786e-11
	-8.777996491024709e-08,3.219555440637175e-13
38		2.398832919019488e+00,0.000000000000000e+00
	-8.777996491024704e-04,3.294548520663397e-09
	1.000000000000000e+00,0.000000000000000e+00
	0.000000000000000e+00,0.000000000000000e+00
	2.112720224085891e-05,2.709027994047503e-13
	2.112720224757033e-05,2.720686138202935e-13
	8.777996491024679e-08,-3.294548520663383e-13
	2.449292028714072e-05,1.512798592741726e-11
	-1.126784120677760e-05,-1.450442180330896e-13
	-1.331285904527337e-05,-1.465348685731784e-11
	-8.777996491024704e-08,3.294548520663397e-13
	-2.449292028716687e-05,-1.512798592741726e-11
	-8.777996491024704e-08,3.294548520663397e-13
39		2.454708915685027e+00,0.000000000000000e+00
	-8.777996491024698e-04,3.371288413923778e-09
	1.000000000000000e+00,0.000000000000000e+00
	0.000000000000000e+00,0.000000000000000e+00
	2.112720224085891e-05,2.772129362201198e-13
	2.112720224757033e-05,2.784059059418450e-13
	8.777996491024700e-08,-3.371288413923787e-13
	2.449292028714072e-05,1.548036198684795e-11
	-1.126784120677760e-05,-1.484227318841023e-13
	-1.331285904527337e-05,-1.499481041357147e-11
	-8.777996491024697e-08,3.371288413923778e-13
	-2.449292028716687e-05,-1.548036198684795e-11
	-8.777996491024697e-08,3.371288413923778e-13
40		2.511886431509577e+00,0.000000000000000e+00
	-8.777996491024692e-04,3.449815808925501e-09
	1.000000000000000e+00,0.000000000000000e+00
	0.000000000000000e+00,0.000000000000000e+00
	2.112720224085890e-05,2.836700550036202e-13
	2.112720224757032e-05,2.848908125598647e-13
	8.777996491024658e-08,-3.449815808925484e-13
	2.449292028714072e-05,1.584094593911088e-11
	-1.126784120677760e-05,-1.518799414321672e-13
	-1.331285904527337e-05,-1.534408441678616e-11
	-8.777996491024692e-08,3.449815808925501e-13
	-2.449292028716687e-05,-1.584094593911088e-11
	-8.777996491024692e-08,3.449815808925501e-13
41		2.570395782768860e+00,0.000000000000000e+00
	-8.777996491024686e-04,3.530172341932825e-09
	1.000000000000000e+00,0.000000000000000e+00
	0.000000000000000e+00,0.000000000000000e+00
	2.112720224085890e-05,2.902775794051006e-13
	2.112720224757032e-05,2.915267720576794e-13
	8.777996491024658e-08,-3.530172341932822e-13
	2.449292028714072e-05,1.620992897059043e-11
	-1.126784120677760e-05,-1.554176797355480e-13
	-1.331285904527337e-05,-1.570149405666160e-11
	-8.777996491024685e-08,3.530172341932825e-13
	-2.449292028716687e-05,-1.620992897059043e-11
	-8.777996491024685e-08,3.530172341932825e-13
42		2.630267991895378e+00,0.000000000000000e+00
	-8.777996491024679e-04,3.612400619043198e-09
	1.000000000000000e+00,0.000000000000000e+00
	0.000000000000000e+00,0.000000000000000e+00
	2.112720224085890e-05,2.970390128214596e-13
	2.112720224757032e-05,2.983173029088521e-13
	8.777996491024658e-08,-3.612400619043191e-13
	2.449292028714072e-05,1.658750672097397e-11
	-1.126784120677759e-05,-1.590378225499208e-13
	-1.331285904527337e-05,-1.606722883651973e-11
	-8.777996491024680e-08,3.612400619043198e-13
	-2.449292028716687e-05,-1.658750672097397e-11
	-8.777996491024680e-08,3.612400619043198e-13
43		2.691534803926912e+00,0.000000000000000e+00
	-8.777996491024673e-04,3.696544238777563e-09
	1.000000000000000e+00,0.000000000000000e+00
	0.000000000000000e+00,0.000000000000000e+00
	2.112720224085890e-05,3.039579402541928e-13
	2.112720224757032e-05,3.052660055427235e-13
	8.777996491024637e-08,-3.696544238777561e-13
	2.449292028714072e-05,1.697387938698257e-11
	-1.126784120677759e-05,-1.627422893229241e-13
	-1.331285904527337e-05,-1.644148267378189e-11
	-8.777996491024674e-08,3.696544238777564e-13
	-2.449292028716687e-05,-1.697387938698258e-11
	-8.777996491024674e-08,3.696544238777564e-13
44		2.754228703338163e+00,0.000000000000000e+00
	-8.777996491024665e-04,3.782647815196875e-09
	1.000000000000000e+00,0.000000000000000e+00
	0.000000000000000e+00,0.000000000000000e+00
	2.112720224085889e-05,3.110380302102076e-13
	2.112720224757032e-05,3.123765642534067e-13
	8.777996491024637e-08,-3.782647815196861e-13
	2.449292028714073e-05,1.736925182851800e-11
	-1.126784120677759e-05,-1.665330442118752e-13
	-1.331285904527338e-05,-1.682445400278644e-11
	-8.777996491024666e-08,3.782647815196875e-13
	-2.449292028716687e-05,-1.736925182851801e-11
	-8.777996491024666e-08,3.782647815196875e-13
45		2.818382931264450e+00,0.000000000000000e+00
	-8.777996491024657e-04,3.870757001557066e-09
	1.000000000000000e+00,0.000000000000000e+00
	0.000000000000000e+00,0.000000000000000e+00
	2.112720224085889e-05,3.182830366469150e-13
	2.112720224757032e-05,3.196527491532499e-13
	8.777996491024637e-08,-3.870757001557086e-13
	2.449292028714073e-05,1.777383367728215e-11
	-1.126784120677759e-05,-1.704120971251930e-13
	-1.331285904527338e-05,-1.721634588000125e-11
	-8.777996491024658e-08,3.870757001557066e-13
	-2.449292028716687e-05,-1.777383367728215e-11
	-8.777996491024658e-08,3.870757001557066e-13
46		2.884031503126602e+00,0.000000000000000e+00
	-8.777996491024650e-04,3.960918514515010e-09
	1.000000000000000e+00,0.000000000000000e+00
	0.000000000000000e+00,0.000000000000000e+00
	2.112720224085889e-05,3.256968009626265e-13
	2.112720224757031e-05,3.270984181717982e-13
	8.777996491024637e-08,-3.960918514515009e-13
	2.449292028714073e-05,1.818783944792649e-11
	-1.126784120677759e-05,-1.743815047880771e-13
	-1.331285904527338e-05,-1.761736609168691e-11
	-8.777996491024650e-08,3.960918514515010e-13
	-2.449292028716687e-05,-1.818783944792649e-11
	-8.777996491024650e-08,3.960918514515010e-13
47		2.951209226666381e+00,0.000000000000000e+00
	-8.777996491024641e-04,4.053180158898304e-09
	1.000000000000000e+00,0.000000000000000e+00
	0.000000000000000e+00,0.000000000000000e+00
	2.112720224085889e-05,3.332832540333153e-13
	2.112720224757031e-05,3.347175191013209e-13
	8.777996491024615e-08,-4.053180158898296e-13
	2.449292028714073e-05,1.861148865179064e-11
	-1.126784120677759e-05,-1.784433718330122e-13
	-1.331285904527338e-05,-1.802772726406779e-11
	-8.777996491024642e-08,4.053180158898304e-13
	-2.449292028716687e-05,-1.861148865179064e-11
	-8.777996491024642e-08,4.053180158898304e-13
48		3.019951720402012e+00,0.000000000000000e+00
	-8.777996491024633e-04,4.147590853052029e-09
	1.000000000000000e+00,0.000000000000000e+00
	0.000000000000000e+00,0.000000000000000e+00
	2.112720224085889e-05,3.410464182968180e-13
	2.112720224757031e-05,3.425140916899811e-13
	8.777996491024615e-08,-4.147590853052019e-13
	2.449292028714073e-05,1.904500591329014e-11
	-1.126784120677759e-05,-1.825998519156702e-13
	-1.331285904527339e-05,-1.844764697606927e-11
	-8.777996491024633e-08,4.147590853052029e-13
	-2.449292028716687e-05,-1.904500591329014e-11
	-8.777996491024633e-08,4.147590853052029e-13
49		3.090295432513586e+00,0.000000000000000e+00
	-8.777996491024624e-04,4.244200654775895e-09