Title: * GA CMOS Amp | W=3.0420708623311366e-05 L=8.420413864477795e-07 Vbias=0.6347895930227789
Date: Sat Sep  6 22:37:35 2025
Plotname: Operating Point
Flags: real
No. Variables: 12
No. Points:            1
Offset:    0.0000000000000000e+00
Command: Linear Technology Corporation LTspice
Variables:
	0	V(out)	voltage
	1	V(g)	voltage
	2	V(vdd)	voltage
	3	V(m1#dbody)	voltage
	4	V(m1#sbody)	voltage
	5	Id(M1)	device_current
	6	Ig(M1)	device_current
	7	Ib(M1)	device_current
	8	Is(M1)	device_current
	9	I(Rload)	device_current
	10	I(Vg)	device_current
	11	I(Vdd)	device_current
Values:
0		6.111172760853951e-02
	6.347895930227789e-01
	1.800000000000000e+00
	8.145777262833780e-10
	8.140514500775725e-10
	1.738888149327467e-04
	2.634876029658333e-07
	-4.341958587818838e-10
	-1.741518683398538e-04
	-1.738888272391461e-04
	-2.634876024865118e-07
	-1.738888272391461e-04
