Title: * GA CMOS Amp | W=5e-05 L=8.480342601475386e-07 Vbias=1.2942694089040947
Date: Sat Sep  6 22:07:53 2025
Plotname: Operating Point
Flags: real
No. Variables: 12
No. Points:            1
Offset:    0.0000000000000000e+00
Command: Linear Technology Corporation LTspice
Variables:
	0	V(out)	voltage
	1	V(g)	voltage
	2	V(vdd)	voltage
	3	V(m1#dbody)	voltage
	4	V(m1#sbody)	voltage
	5	Id(M1)	device_current
	6	Ig(M1)	device_current
	7	Ib(M1)	device_current
	8	Is(M1)	device_current
	9	I(Rload)	device_current
	10	I(Vg)	device_current
	11	I(Vdd)	device_current
Values:
0		3.222631370623602e-02
	1.294269408904095e+00
	1.800000000000000e+00
	3.542344101663961e-05
	3.542344072148965e-05
	1.767773685921973e-04
	3.290972398929845e-05
	-1.889250175210275e-05
	-1.907945908293930e-04
	-1.767773686293764e-04
	-3.290972398919956e-05
	-1.767773686293764e-04
