Title: * Amplificador CMOS - W=4.318509537977306e-05 L=2.6354845866338945e-07 Vbias=1.1897816259309622
Date: Wed Jul 30 15:50:09 2025
Plotname: Operating Point
Flags: real
No. Variables: 12
No. Points:            1
Offset:    0.0000000000000000e+00
Command: Linear Technology Corporation LTspice
Variables:
	0	V(out)	voltage
	1	V(in)	voltage
	2	V(bias)	voltage
	3	V(vdd)	voltage
	4	Id(M1)	device_current
	5	Ig(M1)	device_current
	6	Ib(M1)	device_current
	7	Is(M1)	device_current
	8	I(Rload)	device_current
	9	I(Vbias)	device_current
	10	I(Vin)	device_current
	11	I(Vdd)	device_current
Values:
0		1.799999975797817e+00
	0.000000000000000e+00
	1.189781625930962e+00
	1.800000000000000e+00
	2.420218325664671e-12
	0.000000000000000e+00
	-3.009781601728779e-12
	5.895632760641077e-13
	-2.420218336851576e-12
	-5.895632760641075e-13
	0.000000000000000e+00
	-2.420218322626844e-12
