Title: * GA CMOS Amp | W=4.25347110424219e-06 L=1e-06 Vbias=1.182198616639895
Date: Mon Sep  8 18:46:45 2025
Plotname: AC Analysis
Flags: complex forward log
No. Variables: 11
No. Points:          901
Offset:    0.0000000000000000e+00
Command: Linear Technology Corporation LTspice
Variables:
	0	frequency	frequency
	1	V(out)	voltage
	2	V(g)	voltage
	3	V(vdd)	voltage
	4	Id(M1)	device_current
	5	Ig(M1)	device_current
	6	Ib(M1)	device_current
	7	Is(M1)	device_current
	8	I(Rload)	device_current
	9	I(Vg)	device_current
	10	I(Vdd)	device_current
Values:
0		1.000000000000000e+00,0.000000000000000e+00
	-1.422678644918915e+00,1.220862107420034e-10
	1.000000000000000e+00,0.000000000000000e+00
	0.000000000000000e+00,0.000000000000000e+00
	1.422678644918915e-04,-1.220862107420034e-14
	6.525592727807369e-25,4.437360559859695e-14
	1.422678625297505e-12,-1.469426250841699e-15
	-1.422678659145701e-04,-3.069555827355491e-14
	-1.422678644918915e-04,1.220862107420034e-14
	-6.525592727807369e-25,-4.437360559859696e-14
	-1.422678644918915e-04,1.220862107420034e-14
1		1.023292992280754e+00,0.000000000000000e+00
	-1.422678644918915e+00,1.249299639064034e-10
	1.000000000000000e+00,0.000000000000000e+00
	0.000000000000000e+00,0.000000000000000e+00
	1.422678644918915e-04,-1.249299639064034e-14
	6.833134438240441e-25,4.540719965127430e-14
	1.422678625297505e-12,-1.503653585159696e-15
	-1.422678659145701e-04,-3.141054967547426e-14
	-1.422678644918915e-04,1.249299639064034e-14
	-6.833134438240441e-25,-4.540719965127430e-14
	-1.422678644918915e-04,1.249299639064034e-14
2		1.047128548050899e+00,0.000000000000000e+00
	-1.422678644918915e+00,1.278399565913102e-10
	1.000000000000000e+00,0.000000000000000e+00
	0.000000000000000e+00,0.000000000000000e+00
	1.422678644918915e-04,-1.278399565913102e-14
	7.155170142951310e-25,4.646486920224209e-14
	1.422678625297505e-12,-1.538678176511752e-15
	-1.422678659145701e-04,-3.214219536659932e-14
	-1.422678644918915e-04,1.278399565913102e-14
	-7.155170142951310e-25,-4.646486920224209e-14
	-1.422678644918915e-04,1.278399565913102e-14
3		1.071519305237606e+00,0.000000000000000e+00
	-1.422678644918915e+00,1.308177317133635e-10
	1.000000000000000e+00,0.000000000000000e+00
	0.000000000000000e+00,0.000000000000000e+00
	1.422678644918915e-04,-1.308177317133635e-14
	7.492382922845749e-25,4.754717504189616e-14
	1.422678625297505e-12,-1.574518595399802e-15
	-1.422678659145701e-04,-3.289088327516001e-14
	-1.422678644918915e-04,1.308177317133635e-14
	-7.492382922845749e-25,-4.754717504189616e-14
	-1.422678644918915e-04,1.308177317133635e-14
4		1.096478196143185e+00,0.000000000000000e+00
	-1.422678644918915e+00,1.338648681283486e-10
	1.000000000000000e+00,0.000000000000000e+00
	0.000000000000000e+00,0.000000000000000e+00
	1.422678644918915e-04,-1.338648681283486e-14
	7.845488051440822e-25,4.865469102311870e-14
	1.422678625297505e-12,-1.611193844888347e-15
	-1.422678659145701e-04,-3.365701036539549e-14
	-1.422678644918915e-04,1.338648681283486e-14
	-7.845488051440822e-25,-4.865469102311871e-14
	-1.422678644918915e-04,1.338648681283486e-14
5		1.122018454301963e+00,0.000000000000000e+00
	-1.422678644918915e+00,1.369829814683264e-10
	1.000000000000000e+00,0.000000000000000e+00
	0.000000000000000e+00,0.000000000000000e+00
	1.422678644918915e-04,-1.369829814683264e-14
	8.215234512055912e-25,4.978800436554270e-14
	1.422678625297505e-12,-1.648723370680144e-15
	-1.422678659145701e-04,-3.444098284802991e-14
	-1.422678644918915e-04,1.369829814683264e-14
	-8.215234512055912e-25,-4.978800436554270e-14
	-1.422678644918915e-04,1.369829814683264e-14
6		1.148153621496882e+00,0.000000000000000e+00
	-1.422678644918915e+00,1.401737249982628e-10
	1.000000000000000e+00,0.000000000000000e+00
	0.000000000000000e+00,0.000000000000000e+00
	1.422678644918915e-04,-1.401737249982628e-14
	8.602406586506746e-25,5.094771596690343e-14
	1.422678625297505e-12,-1.687127071426486e-15
	-1.422678659145701e-04,-3.524321639565066e-14
	-1.422678644918915e-04,1.401737249982628e-14
	-8.602406586506746e-25,-5.094771596690343e-14
	-1.422678644918915e-04,1.401737249982628e-14
7		1.174897554939529e+00,0.000000000000000e+00
	-1.422678644918915e+00,1.434387904926119e-10
	1.000000000000000e+00,0.000000000000000e+00
	0.000000000000000e+00,0.000000000000000e+00
	1.422678644918915e-04,-1.434387904926119e-14
	9.007825518672302e-25,5.213444072164256e-14
	1.422678625297505e-12,-1.726425309277881e-15
	-1.422678659145701e-04,-3.606413636310349e-14
	-1.422678644918915e-04,1.434387904926119e-14
	-9.007825518672302e-25,-5.213444072164257e-14
	-1.422678644918915e-04,1.434387904926119e-14
8		1.202264434617413e+00,0.000000000000000e+00
	-1.422678644918915e+00,1.467799091323170e-10
	1.000000000000000e+00,0.000000000000000e+00
	0.000000000000000e+00,0.000000000000000e+00
	1.422678644918915e-04,-1.467799091323170e-14
	9.432351256463169e-25,5.334880784693322e-14
	1.422678625297505e-12,-1.766638920680182e-15
	-1.422678659145701e-04,-3.690417801302133e-14
	-1.422678644918915e-04,1.467799091323170e-14
	-9.432351256463169e-25,-5.334880784693322e-14
	-1.422678644918915e-04,1.467799091323170e-14
9		1.230268770812381e+00,0.000000000000000e+00
	-1.422678644918915e+00,1.501988524227059e-10
	1.000000000000000e+00,0.000000000000000e+00
	0.000000000000000e+00,0.000000000000000e+00
	1.422678644918915e-04,-1.501988524227059e-14
	9.876884275886358e-25,5.459146121629927e-14
	1.422678625297505e-12,-1.807789227422472e-15
	-1.422678659145701e-04,-3.776378674660621e-14
	-1.422678644918915e-04,1.501988524227059e-14
	-9.876884275886358e-25,-5.459146121629927e-14
	-1.422678644918915e-04,1.501988524227059e-14
10		1.258925411794167e+00,0.000000000000000e+00
	-1.422678644918915e+00,1.536974331327661e-10
	1.000000000000000e+00,0.000000000000000e+00
	0.000000000000000e+00,0.000000000000000e+00
	1.422678644918915e-04,-1.536974331327661e-14
	1.034236749107564e-24,5.586305970100562e-14
	1.422678625297505e-12,-1.849898047942049e-15
	-1.422678659145701e-04,-3.864341833978696e-14
	-1.422678644918915e-04,1.536974331327661e-14
	-1.034236749107564e-24,-5.586305970100562e-14
	-1.422678644918915e-04,1.536974331327661e-14
11		1.288249551693134e+00,0.000000000000000e+00
	-1.422678644918915e+00,1.572775062562993e-10
	1.000000000000000e+00,0.000000000000000e+00
	0.000000000000000e+00,0.000000000000000e+00
	1.422678644918915e-04,-1.572775062562994e-14
	1.082978825433886e-24,5.716427751940046e-14
	1.422678625297505e-12,-1.892987708892952e-15
	-1.422678659145701e-04,-3.954353918487757e-14
	-1.422678644918915e-04,1.572775062562993e-14
	-1.082978825433886e-24,-5.716427751940046e-14
	-1.422678644918915e-04,1.572775062562993e-14
12		1.318256738556407e+00,0.000000000000000e+00
	-1.422678644918915e+00,1.609409699954636e-10
	1.000000000000000e+00,0.000000000000000e+00
	0.000000000000000e+00,0.000000000000000e+00
	1.422678644918915e-04,-1.609409699954636e-14
	1.134018045046454e-24,5.849580459439473e-14
	1.422678625297505e-12,-1.937081056983750e-15
	-1.422678659145701e-04,-4.046462653786462e-14
	-1.422678644918915e-04,1.609409699954636e-14
	-1.134018045046454e-24,-5.849580459439473e-14
	-1.422678644918915e-04,1.609409699954636e-14
13		1.348962882591653e+00,0.000000000000000e+00
	-1.422678644918915e+00,1.646897667672250e-10
	1.000000000000000e+00,0.000000000000000e+00
	0.000000000000000e+00,0.000000000000000e+00
	1.422678644918915e-04,-1.646897667672250e-14
	1.187462668973013e-24,5.985834691926848e-14
	1.422678625297505e-12,-1.982201471091280e-15
	-1.422678659145701e-04,-4.140716877145470e-14
	-1.422678644918915e-04,1.646897667672250e-14
	-1.187462668973013e-24,-5.985834691926848e-14
	-1.422678644918915e-04,1.646897667672250e-14
14		1.380384264602885e+00,0.000000000000000e+00
	-1.422678644918915e+00,1.685258842332532e-10
	1.000000000000000e+00,0.000000000000000e+00
	0.000000000000000e+00,0.000000000000000e+00
	1.422678644918915e-04,-1.685258842332532e-14
	1.243426060426357e-24,6.125262693199770e-14
	1.422678625297505e-12,-2.028372874656292e-15
	-1.422678659145701e-04,-4.237166563401608e-14
	-1.422678644918915e-04,1.685258842332532e-14
	-1.243426060426357e-24,-6.125262693199771e-14
	-1.422678644918915e-04,1.685258842332532e-14
15		1.412537544622754e+00,0.000000000000000e+00
	-1.422678644918915e+00,1.724513563538056e-10
	1.000000000000000e+00,0.000000000000000e+00
	0.000000000000000e+00,0.000000000000000e+00
	1.422678644918915e-04,-1.724513563538056e-14
	1.302026925262901e-24,6.267938389830063e-14
	1.422678625297505e-12,-2.075619748368163e-15
	-1.422678659145701e-04,-4.335862851455191e-14
	-1.422678644918915e-04,1.724513563538056e-14
	-1.302026925262901e-24,-6.267938389830063e-14
	-1.422678644918915e-04,1.724513563538056e-14
16		1.445439770745927e+00,0.000000000000000e+00
	-1.422678644918915e+00,1.764682644661603e-10
	1.000000000000000e+00,0.000000000000000e+00
	0.000000000000000e+00,0.000000000000000e+00
	1.422678644918915e-04,-1.764682644661603e-14
	1.363389563773718e-24,6.413937430360615e-14
	1.422678625297505e-12,-2.123967143144668e-15
	-1.422678659145701e-04,-4.436858071384545e-14
	-1.422678644918915e-04,1.764682644661603e-14
	-1.363389563773718e-24,-6.413937430360617e-14
	-1.422678644918915e-04,1.764682644661603e-14
17		1.479108388168207e+00,0.000000000000000e+00
	-1.422678644918915e+00,1.805787383881687e-10
	1.000000000000000e+00,0.000000000000000e+00
	0.000000000000000e+00,0.000000000000000e+00
	1.422678644918915e-04,-1.805787383881687e-14
	1.427644134342123e-24,6.563337225415245e-14
	1.422678625297505e-12,-2.173440693414517e-15
	-1.422678659145701e-04,-4.540205772192106e-14
	-1.422678644918915e-04,1.805787383881687e-14
	-1.427644134342123e-24,-6.563337225415246e-14
	-1.422678644918915e-04,1.805787383881687e-14
18		1.513561248436208e+00,0.000000000000000e+00
	-1.422678644918915e+00,1.847849575475126e-10
	1.000000000000000e+00,0.000000000000000e+00
	0.000000000000000e+00,0.000000000000000e+00
	1.422678644918915e-04,-1.847849575475126e-14
	1.494926929527050e-24,6.716216988742829e-14
	1.422678625297505e-12,-2.224066630708902e-15
	-1.422678659145701e-04,-4.645960750196812e-14
	-1.422678644918915e-04,1.847849575475126e-14
	-1.494926929527050e-24,-6.716216988742830e-14
	-1.422678644918915e-04,1.847849575475126e-14
19		1.548816618912481e+00,0.000000000000000e+00
	-1.422678644918915e+00,1.890891521372663e-10
	1.000000000000000e+00,0.000000000000000e+00
	0.000000000000000e+00,0.000000000000000e+00
	1.422678644918915e-04,-1.890891521372663e-14
	1.565380665157850e-24,6.872657779217486e-14
	1.422678625297505e-12,-2.275871797569898e-15
	-1.422678659145701e-04,-4.754179078087833e-14
	-1.422678644918915e-04,1.890891521372663e-14
	-1.565380665157850e-24,-6.872657779217486e-14
	-1.422678644918915e-04,1.890891521372663e-14
20		1.584893192461113e+00,0.000000000000000e+00
	-1.422678644918915e+00,1.934936042983740e-10
	1.000000000000000e+00,0.000000000000000e+00
	0.000000000000000e+00,0.000000000000000e+00
	1.422678644918915e-04,-1.934936042983740e-14
	1.639154783053690e-24,7.032742543817062e-14
	1.422678625297505e-12,-2.328883661782668e-15
	-1.422678659145701e-04,-4.864918134655055e-14
	-1.422678644918915e-04,1.934936042983740e-14
	-1.639154783053690e-24,-7.032742543817064e-14
	-1.422678644918915e-04,1.934936042983740e-14
21		1.621810097358929e+00,0.000000000000000e+00
	-1.422678644918915e+00,1.980006493296713e-10
	1.000000000000000e+00,0.000000000000000e+00
	0.000000000000000e+00,0.000000000000000e+00
	1.422678644918915e-04,-1.980006493296713e-14
	1.716405768009698e-24,7.196556161602724e-14
	1.422678625297505e-12,-2.383130330939345e-15
	-1.422678659145701e-04,-4.978236635212077e-14
	-1.422678644918915e-04,1.980006493296713e-14
	-1.716405768009698e-24,-7.196556161602724e-14
	-1.422678644918915e-04,1.980006493296713e-14
22		1.659586907437560e+00,0.000000000000000e+00
	-1.422678644918915e+00,2.026126769260916e-10
	1.000000000000000e+00,0.000000000000000e+00
	0.000000000000000e+00,0.000000000000000e+00
	1.422678644918915e-04,-2.026126769260917e-14
	1.797297479722184e-24,7.364185488722951e-14
	1.422678625297505e-12,-2.438640567341949e-15
	-1.422678659145701e-04,-5.094194662727839e-14
	-1.422678644918915e-04,2.026126769260916e-14
	-1.797297479722184e-24,-7.364185488722952e-14
	-1.422678644918915e-04,2.026126769260916e-14
23		1.698243652461743e+00,0.000000000000000e+00
	-1.422678644918915e+00,2.073321324457140e-10
	1.000000000000000e+00,0.000000000000000e+00
	0.000000000000000e+00,0.000000000000000e+00
	1.422678644918915e-04,-2.073321324457141e-14
	1.882001500357032e-24,7.535719404465815e-14
	1.422678625297505e-12,-2.495443803252573e-15
	-1.422678659145701e-04,-5.212853699683417e-14
	-1.422678644918915e-04,2.073321324457140e-14
	-1.882001500357032e-24,-7.535719404465817e-14
	-1.422678644918915e-04,2.073321324457140e-14
24		1.737800828749374e+00,0.000000000000000e+00
	-1.422678644918915e+00,2.121615182063243e-10
	1.000000000000000e+00,0.000000000000000e+00
	0.000000000000000e+00,0.000000000000000e+00
	1.422678644918915e-04,-2.121615182063243e-14
	1.970697498498473e-24,7.711248858383966e-14
	1.422678625297505e-12,-2.553570156498796e-15
	-1.422678659145701e-04,-5.334276660670843e-14
	-1.422678644918915e-04,2.121615182063243e-14
	-1.970697498498473e-24,-7.711248858383967e-14
	-1.422678644918915e-04,2.121615182063243e-14
25		1.778279410038922e+00,0.000000000000000e+00
	-1.422678644918915e+00,2.171033948121773e-10
	1.000000000000000e+00,0.000000000000000e+00
	0.000000000000000e+00,0.000000000000000e+00
	1.422678644918915e-04,-2.171033948121773e-14
	2.063573610250246e-24,7.890866918517279e-14
	1.422678625297505e-12,-2.613050446442489e-15
	-1.422678659145701e-04,-5.458527925751256e-14
	-1.422678644918915e-04,2.171033948121773e-14
	-2.063573610250246e-24,-7.890866918517279e-14
	-1.422678644918915e-04,2.171033948121773e-14
26		1.819700858609982e+00,0.000000000000000e+00
	-1.422678644918915e+00,2.221603825116628e-10
	1.000000000000000e+00,0.000000000000000e+00
	0.000000000000000e+00,0.000000000000000e+00
	1.422678644918915e-04,-2.221603825116629e-14
	2.160826838297492e-24,8.074668820738758e-14
	1.422678625297505e-12,-2.673916210320691e-15
	-1.422678659145701e-04,-5.585673374590060e-14
	-1.422678644918915e-04,2.221603825116628e-14
	-2.160826838297492e-24,-8.074668820738759e-14
	-1.422678644918915e-04,2.221603825116628e-14
27		1.862087136662866e+00,0.000000000000000e+00
	-1.422678644918915e+00,2.273351625865964e-10
	1.000000000000000e+00,0.000000000000000e+00
	0.000000000000000e+00,0.000000000000000e+00
	1.422678644918915e-04,-2.273351625865964e-14
	2.262663469775868e-24,8.262752019249871e-14
	1.422678625297505e-12,-2.736199719967069e-15
	-1.422678659145701e-04,-5.715780421387200e-14
	-1.422678644918915e-04,2.273351625865964e-14
	-2.262663469775868e-24,-8.262752019249872e-14
	-1.422678644918915e-04,2.273351625865964e-14
28		1.905460717963246e+00,0.000000000000000e+00
	-1.422678644918915e+00,2.326304787738699e-10
	1.000000000000000e+00,0.000000000000000e+00
	0.000000000000000e+00,0.000000000000000e+00
	1.422678644918915e-04,-2.326304787738699e-14
	2.369299513834215e-24,8.455216238252044e-14
	1.422678625297505e-12,-2.799933998922871e-15
	-1.422678659145701e-04,-5.848918050621057e-14
	-1.422678644918915e-04,2.326304787738699e-14
	-2.369299513834215e-24,-8.455216238252045e-14
	-1.422678644918915e-04,2.326304787738699e-14
29		1.949844599758044e+00,0.000000000000000e+00
	-1.422678644918915e+00,2.380491387202179e-10
	1.000000000000000e+00,0.000000000000000e+00
	0.000000000000000e+00,0.000000000000000e+00
	1.422678644918915e-04,-2.380491387202179e-14
	2.480961159818925e-24,8.652163524821757e-14
	1.422678625297505e-12,-2.865152839946398e-15
	-1.422678659145701e-04,-5.985156853624938e-14
	-1.422678644918915e-04,2.380491387202179e-14
	-2.480961159818925e-24,-8.652163524821758e-14
	-1.422678644918915e-04,2.380491387202179e-14
30		1.995262314968878e+00,0.000000000000000e+00
	-1.422678644918915e+00,2.435940154708680e-10
	1.000000000000000e+00,0.000000000000000e+00
	0.000000000000000e+00,0.000000000000000e+00
	1.422678644918915e-04,-2.435940154708681e-14
	2.597885257051865e-24,8.853698303017252e-14
	1.422678625297505e-12,-2.931890822930454e-15
	-1.422678659145701e-04,-6.124569066015525e-14
	-1.422678644918915e-04,2.435940154708680e-14
	-2.597885257051865e-24,-8.853698303017253e-14
	-1.422678644918915e-04,2.435940154708680e-14
31		2.041737944669527e+00,0.000000000000000e+00
	-1.422678644918915e+00,2.492680489928688e-10
	1.000000000000000e+00,0.000000000000000e+00
	0.000000000000000e+00,0.000000000000000e+00
	1.422678644918915e-04,-2.492680489928688e-14
	2.720319817219557e-24,9.059927429245557e-14
	1.422678625297505e-12,-3.000183333236990e-15
	-1.422678659145701e-04,-6.267228605993170e-14
	-1.422678644918915e-04,2.492680489928688e-14
	-2.720319817219557e-24,-9.059927429245557e-14
	-1.422678644918915e-04,2.492680489928688e-14
32		2.089296130854037e+00,0.000000000000000e+00
	-1.422678644918915e+00,2.550742477338984e-10
	1.000000000000000e+00,0.000000000000000e+00
	0.000000000000000e+00,0.000000000000000e+00
	1.422678644918915e-04,-2.550742477338984e-14
	2.848524540439204e-24,9.270960248919168e-14
	1.422678625297505e-12,-3.070066580458925e-15
	-1.422678659145701e-04,-6.413211113534291e-14
	-1.422678644918915e-04,2.550742477338984e-14
	-2.848524540439204e-24,-9.270960248919168e-14
	-1.422678644918915e-04,2.550742477338984e-14
33		2.137962089502230e+00,0.000000000000000e+00
	-1.422678644918915e+00,2.610156902173832e-10
	1.000000000000000e+00,0.000000000000000e+00
	0.000000000000000e+00,0.000000000000000e+00
	1.422678644918915e-04,-2.610156902173833e-14
	2.982771366117458e-24,9.486908654432419e-14
	1.422678625297505e-12,-3.141577617618959e-15
	-1.422678659145701e-04,-6.562593990496690e-14
	-1.422678644918915e-04,2.610156902173832e-14
	-2.982771366117458e-24,-9.486908654432420e-14
	-1.422678644918915e-04,2.610156902173832e-14
34		2.187761623949550e+00,0.000000000000000e+00
	-1.422678644918915e+00,2.670955266747724e-10
	1.000000000000000e+00,0.000000000000000e+00
	0.000000000000000e+00,0.000000000000000e+00
	1.422678644918915e-04,-2.670955266747725e-14
	3.123345049770372e-24,9.707887144488333e-14
	1.422678625297505e-12,-3.214754360815548e-15
	-1.422678659145701e-04,-6.715456441659054e-14
	-1.422678644918915e-04,2.670955266747725e-14
	-3.123345049770372e-24,-9.707887144488333e-14
	-1.422678644918915e-04,2.670955266747725e-14
35		2.238721138568337e+00,0.000000000000000e+00
	-1.422678644918915e+00,2.733169807158318e-10
	1.000000000000000e+00,0.000000000000000e+00
	0.000000000000000e+00,0.000000000000000e+00
	1.422678644918915e-04,-2.733169807158319e-14
	3.270543767028014e-24,9.934012884807331e-14
	1.422678625297505e-12,-3.289635609326539e-15
	-1.422678659145701e-04,-6.871879516716358e-14
	-1.422678644918915e-04,2.733169807158318e-14
	-3.270543767028014e-24,-9.934012884807332e-14
	-1.422678644918915e-04,2.733169807158318e-14
36		2.290867652767770e+00,0.000000000000000e+00
	-1.422678644918915e+00,2.796833510378447e-10
	1.000000000000000e+00,0.000000000000000e+00
	0.000000000000000e+00,0.000000000000000e+00
	1.422678644918915e-04,-2.796833510378447e-14
	3.424679746104963e-24,1.016540577025006e-13
	1.422678625297505e-12,-3.366261066181076e-15
	-1.422678659145701e-04,-7.031946153253506e-14
	-1.422678644918915e-04,2.796833510378447e-14
	-3.424679746104963e-24,-1.016540577025006e-13
	-1.422678644918915e-04,2.796833510378447e-14
37		2.344228815319919e+00,0.000000000000000e+00
	-1.422678644918915e+00,2.861980131746247e-10
	1.000000000000000e+00,0.000000000000000e+00
	0.000000000000000e+00,0.000000000000000e+00
	1.422678644918915e-04,-2.861980131746247e-14
	3.586079930078214e-24,1.040218848838723e-13
	1.422678625297505e-12,-3.444671359210628e-15
	-1.422678659145701e-04,-7.195741220719918e-14
	-1.422678644918915e-04,2.861980131746247e-14
	-3.586079930078214e-24,-1.040218848838723e-13
	-1.422678644918915e-04,2.861980131746247e-14
38		2.398832919019488e+00,0.000000000000000e+00
	-1.422678644918915e+00,2.928644212862684e-10
	1.000000000000000e+00,0.000000000000000e+00
	0.000000000000000e+00,0.000000000000000e+00
	1.422678644918915e-04,-2.928644212862684e-14
	3.755086670377272e-24,1.064448658455018e-13
	1.422678625297505e-12,-3.524908062590465e-15
	-1.422678659145701e-04,-7.363351565428451e-14
	-1.422678644918915e-04,2.928644212862685e-14
	-3.755086670377272e-24,-1.064448658455018e-13
	-1.422678644918915e-04,2.928644212862685e-14
39		2.454708915685027e+00,0.000000000000000e+00
	-1.422678644918915e+00,2.996861099905970e-10
	1.000000000000000e+00,0.000000000000000e+00
	0.000000000000000e+00,0.000000000000000e+00
	1.422678644918915e-04,-2.996861099905970e-14
	3.932058452957439e-24,1.089242852839670e-13
	1.422678625297505e-12,-3.607013718882737e-15
	-1.422678659145701e-04,-7.534866056602454e-14
	-1.422678644918915e-04,2.996861099905970e-14
	-3.932058452957439e-24,-1.089242852839670e-13
	-1.422678644918915e-04,2.996861099905970e-14
40		2.511886431509577e+00,0.000000000000000e+00
	-1.422678644918915e+00,3.066666962372572e-10
	1.000000000000000e+00,0.000000000000000e+00
	0.000000000000000e+00,0.000000000000000e+00
	1.422678644918915e-04,-3.066666962372571e-14
	4.117370658696588e-24,1.114614578202731e-13
	1.422678625297505e-12,-3.691031861593254e-15
	-1.422678659145701e-04,-7.710375633495411e-14
	-1.422678644918915e-04,3.066666962372571e-14
	-4.117370658696588e-24,-1.114614578202731e-13
	-1.422678644918915e-04,3.066666962372571e-14
41		2.570395782768860e+00,0.000000000000000e+00
	-1.422678644918915e+00,3.138098812254759e-10
	1.000000000000000e+00,0.000000000000000e+00
	0.000000000000000e+00,0.000000000000000e+00
	1.422678644918915e-04,-3.138098812254759e-14
	4.311416359628333e-24,1.140577286968823e-13
	1.422678625297505e-12,-3.777007038253374e-15
	-1.422678659145701e-04,-7.889973353608133e-14
	-1.422678644918915e-04,3.138098812254759e-14
	-4.311416359628333e-24,-1.140577286968823e-13
	-1.422678644918915e-04,3.138098812254759e-14
42		2.630267991895378e+00,0.000000000000000e+00
	-1.422678644918915e+00,3.211194523664853e-10
	1.000000000000000e+00,0.000000000000000e+00
	0.000000000000000e+00,0.000000000000000e+00
	1.422678644918915e-04,-3.211194523664853e-14
	4.514607152700512e-24,1.167144744909791e-13
	1.422678625297505e-12,-3.864984834039765e-15
	-1.422678659145701e-04,-8.073754442029083e-14
	-1.422678644918915e-04,3.211194523664853e-14
	-4.514607152700512e-24,-1.167144744909791e-13
	-1.422678644918915e-04,3.211194523664853e-14
43		2.691534803926912e+00,0.000000000000000e+00
	-1.422678644918915e+00,3.285992852916578e-10
	1.000000000000000e+00,0.000000000000000e+00
	0.000000000000000e+00,0.000000000000000e+00
	1.422678644918915e-04,-3.285992852916578e-14
	4.727374032827493e-24,1.194331038443498e-13
	1.422678625297505e-12,-3.955011895944259e-15
	-1.422678659145701e-04,-8.261816341923973e-14
	-1.422678644918915e-04,3.285992852916579e-14
	-4.727374032827493e-24,-1.194331038443498e-13
	-1.422678644918915e-04,3.285992852916579e-14
44		2.754228703338163e+00,0.000000000000000e+00
	-1.422678644918915e+00,3.362533459074177e-10
	1.000000000000000e+00,0.000000000000000e+00
	0.000000000000000e+00,0.000000000000000e+00
	1.422678644918915e-04,-3.362533459074178e-14
	4.950168307088177e-24,1.222150582102627e-13
	1.422678625297505e-12,-4.047135957506787e-15
	-1.422678659145701e-04,-8.454258766201415e-14
	-1.422678644918915e-04,3.362533459074178e-14
	-4.950168307088177e-24,-1.222150582102627e-13
	-1.422678644918915e-04,3.362533459074178e-14
45		2.818382931264450e+00,0.000000000000000e+00
	-1.422678644918915e+00,3.440856924980169e-10
	1.000000000000000e+00,0.000000000000000e+00
	0.000000000000000e+00,0.000000000000000e+00
	1.422678644918915e-04,-3.440856924980169e-14
	5.183462552008821e-24,1.250618126177463e-13
	1.422678625297505e-12,-4.141405864124156e-15
	-1.422678659145701e-04,-8.651183750382042e-14
	-1.422678644918915e-04,3.440856924980169e-14
	-5.183462552008821e-24,-1.250618126177463e-13
	-1.422678644918915e-04,3.440856924980169e-14
46		2.884031503126602e+00,0.000000000000000e+00
	-1.422678644918915e+00,3.521004778772912e-10
	1.000000000000000e+00,0.000000000000000e+00
	0.000000000000000e+00,0.000000000000000e+00
	1.422678644918915e-04,-3.521004778772912e-14
	5.427751615961207e-24,1.279748764536685e-13
	1.422678625297505e-12,-4.237871598948676e-15
	-1.422678659145701e-04,-8.852695706699075e-14
	-1.422678644918915e-04,3.521004778772912e-14
	-5.427751615961207e-24,-1.279748764536686e-13
	-1.422678644918915e-04,3.521004778772912e-14
47		2.951209226666381e+00,0.000000000000000e+00
	-1.422678644918915e+00,3.603019515905368e-10
	1.000000000000000e+00,0.000000000000000e+00
	0.000000000000000e+00,0.000000000000000e+00
	1.422678644918915e-04,-3.603019515905368e-14
	5.683553668802383e-24,1.309557942630343e-13
	1.422678625297505e-12,-4.336584309389814e-15
	-1.422678659145701e-04,-9.058901479459082e-14
	-1.422678644918915e-04,3.603019515905368e-14
	-5.683553668802383e-24,-1.309557942630343e-13
	-1.422678644918915e-04,3.603019515905368e-14
48		3.019951720402012e+00,0.000000000000000e+00
	-1.422678644918915e+00,3.686944621676758e-10
	1.000000000000000e+00,0.000000000000000e+00
	0.000000000000000e+00,0.000000000000000e+00
	1.422678644918915e-04,-3.686944621676758e-14
	5.951411300982402e-24,1.340061465679232e-13
	1.422678625297505e-12,-4.437596334233280e-15
	-1.422678659145701e-04,-9.269910401692235e-14
	-1.422678644918915e-04,3.686944621676758e-14
	-5.951411300982402e-24,-1.340061465679232e-13
	-1.422678644918915e-04,3.686944621676758e-14
49		3.090295432513586e+00,0.000000000000000e+00
	-1.422678644918915e+00,3.772824594289042e-10
	1.000000000000000e+00,0.000000000000000e+00
	0.000000000000000e+00,0.000000000000000e+00
	1.422678644918915e-04,-3.772824594289043e-14
	6.231892674451417e-24,1.371275507055034e-13
	1.422678625297505e-12,-4.540961231391681e-15
	-1.422678659145701e-04,-9.485834353122133e-14
	-1.422678644918915e-04,3.772824594289042e-14
	-6.231892674451417e-24,-1.371275507055034e-13
	-1.422678644918915e-04,3.772824594289042e-14
50		3.162277660168374e+00,0.000000000000000e+00
	-1.422678644918915e+00,3.860704968440456e-10
	1.000000000000000e+00,0.000000000000000e+00
	0.000000000000000e+00,0.000000000000000e+00
	1.422678644918915e-04,-3.860704968440456e-14
	6.525592727807349e-24,1.403216616855654e-13
	1.422678625297505e-12,-4.646733806301679e-15
	-1.422678659145701e-04,-9.706787819485920e-14
	-1.422678644918915e-04,3.860704968440456e-14
	-6.525592727807349e-24,-1.403216616855655e-13
	-1.422678644918915e-04,3.860704968440456e-14
51		3.235936569296277e+00,0.000000000000000e+00
	-1.422678644918915e+00,3.950632339468609e-10
	1.000000000000000e+00,0.000000000000000e+00
	0.000000000000000e+00,0.000000000000000e+00
	1.422678644918915e-04,-3.950632339468608e-14
	6.833134438240418e-24,1.435901730680299e-13
	1.422678625297505e-12,-4.754970140982589e-15
	-1.422678659145701e-04,-9.932887953236124e-14
	-1.422678644918915e-04,3.950632339468609e-14
	-6.833134438240418e-24,-1.435901730680299e-13
	-1.422678644918915e-04,3.950632339468609e-14
52		3.311311214825905e+00,0.000000000000000e+00
	-1.422678644918915e+00,4.042654388055948e-10
	1.000000000000000e+00,0.000000000000000e+00
	0.000000000000000e+00,0.000000000000000e+00
	1.422678644918915e-04,-4.042654388055949e-14
	7.155170142951285e-24,1.469348178608957e-13
	1.422678625297505e-12,-4.865727623771700e-15
	-1.422678659145701e-04,-1.016425463565645e-13
	-1.422678644918915e-04,4.042654388055948e-14
	-7.155170142951285e-24,-1.469348178608957e-13
	-1.422678644918915e-04,4.042654388055948e-14
53		3.388441561392020e+00,0.000000000000000e+00
	-1.422678644918915e+00,4.136819905510692e-10
	1.000000000000000e+00,0.000000000000000e+00
	0.000000000000000e+00,0.000000000000000e+00
	1.422678644918915e-04,-4.136819905510693e-14
	7.492382922845727e-24,1.503573694391035e-13
	1.422678625297505e-12,-4.979064979752470e-15
	-1.422678659145701e-04,-1.040101054042441e-13
	-1.422678644918915e-04,4.136819905510692e-14
	-7.492382922845727e-24,-1.503573694391035e-13
	-1.422678644918915e-04,4.136819905510692e-14
54		3.467368504525310e+00,0.000000000000000e+00
	-1.422678644918915e+00,4.233178819636623e-10
	1.000000000000000e+00,0.000000000000000e+00
	0.000000000000000e+00,0.000000000000000e+00
	1.422678644918915e-04,-4.233178819636623e-14
	7.845488051440800e-24,1.538596424848030e-13
	1.422678625297505e-12,-5.095042301891201e-15
	-1.422678659145701e-04,-1.064328119865456e-13
	-1.422678644918915e-04,4.233178819636623e-14
	-7.845488051440800e-24,-1.538596424848031e-13
	-1.422678644918915e-04,4.233178819636623e-14
55		3.548133892335748e+00,0.000000000000000e+00
	-1.422678644918915e+00,4.331782221205470e-10
	1.000000000000000e+00,0.000000000000000e+00
	0.000000000000000e+00,0.000000000000000e+00
	1.422678644918915e-04,-4.331782221205470e-14
	8.215234512055885e-24,1.574434939495212e-13
	1.422678625297505e-12,-5.213721082899294e-15
	-1.422678659145701e-04,-1.089119506545672e-13
	-1.422678644918915e-04,4.331782221205470e-14
	-8.215234512055885e-24,-1.574434939495212e-13
	-1.422678644918915e-04,4.331782221205470e-14
56		3.630780547701007e+00,0.000000000000000e+00
	-1.422678644918915e+00,4.432682391045917e-10
	1.000000000000000e+00,0.000000000000000e+00
	0.000000000000000e+00,0.000000000000000e+00
	1.422678644918915e-04,-4.432682391045918e-14
	8.602406586506720e-24,1.611108240387423e-13
	1.422678625297505e-12,-5.335164247837256e-15
	-1.422678659145701e-04,-1.114488358804459e-13
	-1.422678644918915e-04,4.432682391045917e-14
	-8.602406586506720e-24,-1.611108240387423e-13
	-1.422678644918915e-04,4.432682391045917e-14
57		3.715352290971718e+00,0.000000000000000e+00
	-1.422678644918915e+00,4.535932827763584e-10
	1.000000000000000e+00,0.000000000000000e+00
	0.000000000000000e+00,0.000000000000000e+00
	1.422678644918915e-04,-4.535932827763584e-14
	9.007825518672277e-24,1.648635772194227e-13
	1.422678625297505e-12,-5.459436187478692e-15
	-1.422678659145701e-04,-1.140448127543081e-13
	-1.422678644918915e-04,4.535932827763584e-14
	-9.007825518672277e-24,-1.648635772194227e-13
	-1.422678644918915e-04,4.535932827763584e-14
58		3.801893963205605e+00,0.000000000000000e+00