Title: * GA CMOS Amp | W=1.41496808013759e-05 L=8.622517751147521e-07 Vbias=0.8574063499500961
Date: Mon Sep  8 21:05:05 2025
Plotname: AC Analysis
Flags: complex forward log nocompression
No. Variables: 2
No. Points:         3601
Offset:    0.0000000000000000e+00
Command: Linear Technology Corporation LTspice
Variables:
	0	frequency	frequency
	1	V(out)	voltage
Values:
0		1.000000000000000e+00,0.000000000000000e+00
	-2.283959875053712e+00,5.751372542374610e-10
1		1.005773063001738e+00,0.000000000000000e+00
	-2.283959875053712e+00,5.784575578408206e-10
2		1.011579454259899e+00,0.000000000000000e+00
	-2.283959875053712e+00,5.817970297660673e-10
3		1.017419366180605e+00,0.000000000000000e+00
	-2.283959875053712e+00,5.851557806731310e-10
4		1.023292992280754e+00,0.000000000000000e+00
	-2.283959875053712e+00,5.885339218607883e-10
5		1.029200527194428e+00,0.000000000000000e+00
	-2.283959875053712e+00,5.919315652703508e-10
6		1.035142166679344e+00,0.000000000000000e+00
	-2.283959875053712e+00,5.953488234893741e-10
7		1.041118107623340e+00,0.000000000000000e+00
	-2.283959875053712e+00,5.987858097553889e-10
8		1.047128548050900e+00,0.000000000000000e+00
	-2.283959875053712e+00,6.022426379596537e-10
9		1.053173687129716e+00,0.000000000000000e+00
	-2.283959875053712e+00,6.057194226509278e-10
10		1.059253725177289e+00,0.000000000000000e+00
	-2.283959875053712e+00,6.092162790392681e-10
11		1.065368863667564e+00,0.000000000000000e+00
	-2.283959875053712e+00,6.127333229998465e-10
12		1.071519305237607e+00,0.000000000000000e+00
	-2.283959875053712e+00,6.162706710767892e-10
13		1.077705253694323e+00,0.000000000000000e+00
	-2.283959875053712e+00,6.198284404870389e-10
14		1.083926914021204e+00,0.000000000000000e+00
	-2.283959875053712e+00,6.234067491242399e-10
15		1.090184492385128e+00,0.000000000000000e+00
	-2.283959875053712e+00,6.270057155626428e-10
16		1.096478196143186e+00,0.000000000000000e+00
	-2.283959875053712e+00,6.306254590610360e-10
17		1.102808233849553e+00,0.000000000000000e+00
	-2.283959875053712e+00,6.342660995666956e-10
18		1.109174815262402e+00,0.000000000000000e+00
	-2.283959875053712e+00,6.379277577193609e-10
19		1.115578151350854e+00,0.000000000000000e+00
	-2.283959875053712e+00,6.416105548552324e-10
20		1.122018454301965e+00,0.000000000000000e+00
	-2.283959875053712e+00,6.453146130109921e-10
21		1.128495937527763e+00,0.000000000000000e+00
	-2.283959875053712e+00,6.490400549278470e-10
22		1.135010815672317e+00,0.000000000000000e+00
	-2.283959875053712e+00,6.527870040555971e-10
23		1.141563304618847e+00,0.000000000000000e+00
	-2.283959875053712e+00,6.565555845567260e-10
24		1.148153621496885e+00,0.000000000000000e+00
	-2.283959875053712e+00,6.603459213105151e-10
25		1.154781984689460e+00,0.000000000000000e+00
	-2.283959875053712e+00,6.641581399171817e-10
26		1.161448613840345e+00,0.000000000000000e+00
	-2.283959875053712e+00,6.679923667020408e-10
27		1.168153729861326e+00,0.000000000000000e+00
	-2.283959875053712e+00,6.718487287196920e-10
28		1.174897554939532e+00,0.000000000000000e+00
	-2.283959875053712e+00,6.757273537582285e-10
29		1.181680312544786e+00,0.000000000000000e+00
	-2.283959875053712e+00,6.796283703434726e-10
30		1.188502227437020e+00,0.000000000000000e+00
	-2.283959875053712e+00,6.835519077432343e-10
31		1.195363525673721e+00,0.000000000000000e+00
	-2.283959875053712e+00,6.874980959715944e-10
32		1.202264434617415e+00,0.000000000000000e+00
	-2.283959875053712e+00,6.914670657932134e-10
33		1.209205182943211e+00,0.000000000000000e+00
	-2.283959875053712e+00,6.954589487276649e-10
34		1.216186000646371e+00,0.000000000000000e+00
	-2.283959875053712e+00,6.994738770537924e-10
35		1.223207119049934e+00,0.000000000000000e+00
	-2.283959875053712e+00,7.035119838140941e-10
36		1.230268770812384e+00,0.000000000000000e+00
	-2.283959875053712e+00,7.075734028191306e-10
37		1.237371189935355e+00,0.000000000000000e+00
	-2.283959875053712e+00,7.116582686519598e-10
38		1.244514611771388e+00,0.000000000000000e+00
	-2.283959875053712e+00,7.157667166725955e-10
39		1.251699273031728e+00,0.000000000000000e+00
	-2.283959875053712e+00,7.198988830224938e-10
40		1.258925411794170e+00,0.000000000000000e+00
	-2.283959875053712e+00,7.240549046290637e-10
41		1.266193267510947e+00,0.000000000000000e+00
	-2.283959875053712e+00,7.282349192102048e-10
42		1.273503081016665e+00,0.000000000000000e+00
	-2.283959875053712e+00,7.324390652788714e-10
43		1.280855094536282e+00,0.000000000000000e+00
	-2.283959875053712e+00,7.366674821476605e-10
44		1.288249551693137e+00,0.000000000000000e+00
	-2.283959875053712e+00,7.409203099334307e-10
45		1.295686697517022e+00,0.000000000000000e+00
	-2.283959875053712e+00,7.451976895619439e-10
46		1.303166778452302e+00,0.000000000000000e+00
	-2.283959875053712e+00,7.494997627725348e-10
47		1.310690042366080e+00,0.000000000000000e+00
	-2.283959875053712e+00,7.538266721228085e-10
48		1.318256738556410e+00,0.000000000000000e+00
	-2.283959875053712e+00,7.581785609933644e-10
49		1.325867117760563e+00,0.000000000000000e+00
	-2.283959875053712e+00,7.625555735925461e-10
50		1.333521432163328e+00,0.000000000000000e+00
	-2.283959875053712e+00,7.669578549612227e-10
51		1.341219935405375e+00,0.000000000000000e+00
	-2.283959875053712e+00,7.713855509775919e-10
52		1.348962882591657e+00,0.000000000000000e+00
	-2.283959875053712e+00,7.758388083620161e-10
53		1.356750530299865e+00,0.000000000000000e+00
	-2.283959875053712e+00,7.803177746818837e-10
54		1.364583136588928e+00,0.000000000000000e+00
	-2.283959875053712e+00,7.848225983564984e-10
55		1.372460961007566e+00,0.000000000000000e+00
	-2.283959875053712e+00,7.893534286619985e-10
56		1.380384264602889e+00,0.000000000000000e+00
	-2.283959875053712e+00,7.939104157363022e-10
57		1.388353309929050e+00,0.000000000000000e+00
	-2.283959875053712e+00,7.984937105840842e-10
58		1.396368361055942e+00,0.000000000000000e+00
	-2.283959875053712e+00,8.031034650817779e-10
59		1.404429683577952e+00,0.000000000000000e+00
	-2.283959875053712e+00,8.077398319826095e-10
60		1.412537544622759e+00,0.000000000000000e+00
	-2.283959875053712e+00,8.124029649216586e-10
61		1.420692212860187e+00,0.000000000000000e+00
	-2.283959875053712e+00,8.170930184209502e-10
62		1.428893958511108e+00,0.000000000000000e+00
	-2.283959875053712e+00,8.218101478945750e-10
63		1.437143053356396e+00,0.000000000000000e+00
	-2.283959875053712e+00,8.265545096538381e-10
64		1.445439770745933e+00,0.000000000000000e+00
	-2.283959875053712e+00,8.313262609124408e-10
65		1.453784385607667e+00,0.000000000000000e+00
	-2.283959875053712e+00,8.361255597916875e-10
66		1.462177174456723e+00,0.000000000000000e+00
	-2.283959875053712e+00,8.409525653257287e-10
67		1.470618415404566e+00,0.000000000000000e+00
	-2.283959875053712e+00,8.458074374668275e-10
68		1.479108388168213e+00,0.000000000000000e+00
	-2.283959875053712e+00,8.506903370906624e-10
69		1.487647374079508e+00,0.000000000000000e+00
	-2.283959875053712e+00,8.556014260016571e-10
70		1.496235656094439e+00,0.000000000000000e+00
	-2.283959875053712e+00,8.605408669383415e-10
71		1.504873518802520e+00,0.000000000000000e+00
	-2.283959875053712e+00,8.655088235787471e-10
72		1.513561248436214e+00,0.000000000000000e+00
	-2.283959875053712e+00,8.705054605458275e-10
73		1.522299132880426e+00,0.000000000000000e+00
	-2.283959875053712e+00,8.755309434129158e-10
74		1.531087461682036e+00,0.000000000000000e+00
	-2.283959875053712e+00,8.805854387092097e-10
75		1.539926526059498e+00,0.000000000000000e+00
	-2.283959875053712e+00,8.856691139252914e-10
76		1.548816618912488e+00,0.000000000000000e+00
	-2.283959875053712e+00,8.907821375186760e-10
77		1.557758034831609e+00,0.000000000000000e+00
	-2.283959875053712e+00,8.959246789193943e-10
78		1.566751070108156e+00,0.000000000000000e+00
	-2.283959875053712e+00,9.010969085356080e-10
79		1.575796022743931e+00,0.000000000000000e+00
	-2.283959875053712e+00,9.062989977592557e-10
80		1.584893192461120e+00,0.000000000000000e+00
	-2.283959875053712e+00,9.115311189717323e-10
81		1.594042880712224e+00,0.000000000000000e+00
	-2.283959875053712e+00,9.167934455496012e-10
82		1.603245390690048e+00,0.000000000000000e+00
	-2.283959875053712e+00,9.220861518703396e-10
83		1.612501027337748e+00,0.000000000000000e+00
	-2.283959875053712e+00,9.274094133181174e-10
84		1.621810097358937e+00,0.000000000000000e+00
	-2.283959875053712e+00,9.327634062896082e-10
85		1.631172909227846e+00,0.000000000000000e+00
	-2.283959875053712e+00,9.381483081998340e-10
86		1.640589773199547e+00,0.000000000000000e+00
	-2.283959875053712e+00,9.435642974880462e-10
87		1.650061001320235e+00,0.000000000000000e+00
	-2.283959875053712e+00,9.490115536236356e-10
88		1.659586907437568e+00,0.000000000000000e+00
	-2.283959875053712e+00,9.544902571120821e-10
89		1.669167807211066e+00,0.000000000000000e+00
	-2.283959875053712e+00,9.600005895009358e-10
90		1.678804018122569e+00,0.000000000000000e+00
	-2.283959875053712e+00,9.655427333858305e-10
91		1.688495859486762e+00,0.000000000000000e+00
	-2.283959875053712e+00,9.711168724165376e-10
92		1.698243652461753e+00,0.000000000000000e+00
	-2.283959875053712e+00,9.767231913030494e-10
93		1.708047720059717e+00,0.000000000000000e+00
	-2.283959875053712e+00,9.823618758217010e-10
94		1.717908387157597e+00,0.000000000000000e+00
	-2.283959875053712e+00,9.880331128213252e-10
95		1.727825980507873e+00,0.000000000000000e+00
	-2.283959875053712e+00,9.937370902294467e-10
96		1.737800828749385e+00,0.000000000000000e+00
	-2.283959875053712e+00,9.994739970585051e-10
97		1.747833262418228e+00,0.000000000000000e+00
	-2.283959875053712e+00,1.005244023412123e-09
98		1.757923613958702e+00,0.000000000000000e+00
	-2.283959875053712e+00,1.011047360491402e-09
99		1.768072217734330e+00,0.000000000000000e+00
	-2.283959875053712e+00,1.016884200601260e-09
100		1.778279410038933e+00,0.000000000000000e+00
	-2.283959875053712e+00,1.022754737156804e-09
101		1.788545529107782e+00,0.000000000000000e+00
	-2.283959875053712e+00,1.028659164689736e-09
102		1.798870915128798e+00,0.000000000000000e+00
	-2.283959875053712e+00,1.034597678854805e-09
103		1.809255910253831e+00,0.000000000000000e+00
	-2.283959875053712e+00,1.040570476436287e-09
104		1.819700858609994e+00,0.000000000000000e+00
	-2.283959875053712e+00,1.046577755354502e-09
105		1.830206106311067e+00,0.000000000000000e+00
	-2.283959875053712e+00,1.052619714672382e-09
106		1.840772001468967e+00,0.000000000000000e+00
	-2.283959875053712e+00,1.058696554602057e-09
107		1.851398894205283e+00,0.000000000000000e+00
	-2.283959875053712e+00,1.064808476511498e-09
108		1.862087136662879e+00,0.000000000000000e+00
	-2.283959875053712e+00,1.070955682931184e-09
109		1.872837083017560e+00,0.000000000000000e+00
	-2.283959875053712e+00,1.077138377560815e-09
110		1.883649089489812e+00,0.000000000000000e+00
	-2.283959875053712e+00,1.083356765276064e-09
111		1.894523514356604e+00,0.000000000000000e+00
	-2.283959875053712e+00,1.089611052135362e-09
112		1.905460717963259e+00,0.000000000000000e+00
	-2.283959875053712e+00,1.095901445386730e-09
113		1.916461062735399e+00,0.000000000000000e+00
	-2.283959875053712e+00,1.102228153474643e-09
114		1.927524913190948e+00,0.000000000000000e+00
	-2.283959875053712e+00,1.108591386046942e-09
115		1.938652635952220e+00,0.000000000000000e+00
	-2.283959875053712e+00,1.114991353961776e-09
116		1.949844599758058e+00,0.000000000000000e+00
	-2.283959875053712e+00,1.121428269294590e-09
117		1.961101175476061e+00,0.000000000000000e+00
	-2.283959875053712e+00,1.127902345345158e-09
118		1.972422736114867e+00,0.000000000000000e+00
	-2.283959875053712e+00,1.134413796644645e-09
119		1.983809656836519e+00,0.000000000000000e+00
	-2.283959875053712e+00,1.140962838962715e-09
120		1.995262314968893e+00,0.000000000000000e+00
	-2.283959875053712e+00,1.147549689314689e-09
121		2.006781090018203e+00,0.000000000000000e+00
	-2.283959875053712e+00,1.154174565968728e-09
122		2.018366363681575e+00,0.000000000000000e+00
	-2.283959875053712e+00,1.160837688453069e-09
123		2.030018519859698e+00,0.000000000000000e+00
	-2.283959875053712e+00,1.167539277563301e-09
124		2.041737944669544e+00,0.000000000000000e+00
	-2.283959875053712e+00,1.174279555369678e-09
125		2.053525026457161e+00,0.000000000000000e+00
	-2.283959875053712e+00,1.181058745224481e-09
126		2.065380155810544e+00,0.000000000000000e+00
	-2.283959875053712e+00,1.187877071769416e-09
127		2.077303725572579e+00,0.000000000000000e+00
	-2.283959875053712e+00,1.194734760943061e-09
128		2.089296130854055e+00,0.000000000000000e+00
	-2.283959875053712e+00,1.201632039988352e-09
129		2.101357769046763e+00,0.000000000000000e+00
	-2.283959875053712e+00,1.208569137460112e-09
130		2.113489039836662e+00,0.000000000000000e+00
	-2.283959875053712e+00,1.215546283232626e-09
131		2.125690345217123e+00,0.000000000000000e+00
	-2.283959875053712e+00,1.222563708507256e-09
132		2.137962089502248e+00,0.000000000000000e+00
	-2.283959875053712e+00,1.229621645820108e-09
133		2.150304679340273e+00,0.000000000000000e+00
	-2.283959875053712e+00,1.236720329049728e-09
134		2.162718523727037e+00,0.000000000000000e+00
	-2.283959875053712e+00,1.243859993424863e-09
135		2.175204034019540e+00,0.000000000000000e+00
	-2.283959875053712e+00,1.251040875532247e-09
136		2.187761623949570e+00,0.000000000000000e+00
	-2.283959875053712e+00,1.258263213324444e-09
137		2.200391709637416e+00,0.000000000000000e+00
	-2.283959875053712e+00,1.265527246127736e-09
138		2.213094709605655e+00,0.000000000000000e+00
	-2.283959875053712e+00,1.272833214650048e-09
139		2.225871044793023e+00,0.000000000000000e+00
	-2.283959875053712e+00,1.280181360988927e-09
140		2.238721138568358e+00,0.000000000000000e+00
	-2.283959875053712e+00,1.287571928639568e-09
141		2.251645416744636e+00,0.000000000000000e+00
	-2.283959875053712e+00,1.295005162502874e-09
142		2.264644307593079e+00,0.000000000000000e+00
	-2.283959875053712e+00,1.302481308893579e-09
143		2.277718241857341e+00,0.000000000000000e+00
	-2.283959875053712e+00,1.310000615548408e-09
144		2.290867652767792e+00,0.000000000000000e+00
	-2.283959875053712e+00,1.317563331634285e-09
145		2.304092976055865e+00,0.000000000000000e+00
	-2.283959875053712e+00,1.325169707756590e-09
146		2.317394649968498e+00,0.000000000000000e+00
	-2.283959875053712e+00,1.332819995967464e-09
147		2.330773115282658e+00,0.000000000000000e+00
	-2.283959875053712e+00,1.340514449774161e-09
148		2.344228815319942e+00,0.000000000000000e+00
	-2.283959875053712e+00,1.348253324147447e-09
149		2.357762195961275e+00,0.000000000000000e+00
	-2.283959875053712e+00,1.356036875530054e-09
150		2.371373705661676e+00,0.000000000000000e+00
	-2.283959875053712e+00,1.363865361845169e-09
151		2.385063795465127e+00,0.000000000000000e+00
	-2.283959875053712e+00,1.371739042504990e-09
152		2.398832919019512e+00,0.000000000000000e+00
	-2.283959875053712e+00,1.379658178419315e-09
153		2.412681532591656e+00,0.000000000000000e+00
	-2.283959875053712e+00,1.387623032004194e-09
154		2.426610095082438e+00,0.000000000000000e+00
	-2.283959875053712e+00,1.395633867190617e-09
155		2.440619068042003e+00,0.000000000000000e+00
	-2.283959875053712e+00,1.403690949433268e-09
156		2.454708915685053e+00,0.000000000000000e+00
	-2.283959875053712e+00,1.411794545719316e-09
157		2.468880104906232e+00,0.000000000000000e+00
	-2.283959875053712e+00,1.419944924577264e-09
158		2.483133105295594e+00,0.000000000000000e+00
	-2.283959875053712e+00,1.428142356085848e-09
159		2.497468389154167e+00,0.000000000000000e+00
	-2.283959875053712e+00,1.436387111882982e-09
160		2.511886431509604e+00,0.000000000000000e+00
	-2.283959875053712e+00,1.444679465174768e-09
161		2.526387710131921e+00,0.000000000000000e+00
	-2.283959875053712e+00,1.453019690744539e-09
162		2.540972705549330e+00,0.000000000000000e+00
	-2.283959875053712e+00,1.461408064961974e-09
163		2.555641901064163e+00,0.000000000000000e+00
	-2.283959875053712e+00,1.469844865792248e-09
164		2.570395782768889e+00,0.000000000000000e+00
	-2.283959875053712e+00,1.478330372805248e-09
165		2.585234839562216e+00,0.000000000000000e+00
	-2.283959875053712e+00,1.486864867184836e-09
166		2.600159563165298e+00,0.000000000000000e+00
	-2.283959875053712e+00,1.495448631738165e-09
167		2.615170448138023e+00,0.000000000000000e+00
	-2.283959875053712e+00,1.504081950905053e-09
168		2.630267991895408e+00,0.000000000000000e+00
	-2.283959875053712e+00,1.512765110767405e-09
169		2.645452694724076e+00,0.000000000000000e+00
	-2.283959875053712e+00,1.521498399058697e-09
170		2.660725059798836e+00,0.000000000000000e+00
	-2.283959875053712e+00,1.530282105173507e-09
171		2.676085593199359e+00,0.000000000000000e+00
	-2.283959875053712e+00,1.539116520177106e-09
172		2.691534803926943e+00,0.000000000000000e+00
	-2.283959875053712e+00,1.548001936815105e-09
173		2.707073203921385e+00,0.000000000000000e+00
	-2.283959875053712e+00,1.556938649523151e-09
174		2.722701308077940e+00,0.000000000000000e+00
	-2.283959875053712e+00,1.565926954436690e-09
175		2.738419634264389e+00,0.000000000000000e+00
	-2.283959875053712e+00,1.574967149400773e-09
176		2.754228703338195e+00,0.000000000000000e+00
	-2.283959875053712e+00,1.584059533979932e-09
177		2.770129039163762e+00,0.000000000000000e+00
	-2.283959875053712e+00,1.593204409468102e-09
178		2.786121168629800e+00,0.000000000000000e+00
	-2.283959875053712e+00,1.602402078898609e-09
179		2.802205621666776e+00,0.000000000000000e+00
	-2.283959875053712e+00,1.611652847054207e-09
180		2.818382931264483e+00,0.000000000000000e+00
	-2.283959875053712e+00,1.620957020477181e-09
181		2.834653633489697e+00,0.000000000000000e+00
	-2.283959875053712e+00,1.630314907479506e-09
182		2.851018267503939e+00,0.000000000000000e+00
	-2.283959875053712e+00,1.639726818153058e-09
183		2.867477375581346e+00,0.000000000000000e+00
	-2.283959875053712e+00,1.649193064379896e-09
184		2.884031503126637e+00,0.000000000000000e+00
	-2.283959875053712e+00,1.658713959842591e-09
185		2.900681198693185e+00,0.000000000000000e+00
	-2.283959875053712e+00,1.668289820034625e-09
186		2.917427014001198e+00,0.000000000000000e+00
	-2.283959875053712e+00,1.677920962270843e-09
187		2.934269503956000e+00,0.000000000000000e+00
	-2.283959875053712e+00,1.687607705697970e-09
188		2.951209226666418e+00,0.000000000000000e+00
	-2.283959875053712e+00,1.697350371305184e-09
189		2.968246743463274e+00,0.000000000000000e+00
	-2.283959875053712e+00,1.707149281934753e-09
190		2.985382618917992e+00,0.000000000000000e+00
	-2.283959875053712e+00,1.717004762292734e-09
191		3.002617420861300e+00,0.000000000000000e+00
	-2.283959875053712e+00,1.726917138959735e-09
192		3.019951720402049e+00,0.000000000000000e+00
	-2.283959875053712e+00,1.736886740401731e-09
193		3.037386091946138e+00,0.000000000000000e+00
	-2.283959875053712e+00,1.746913896980954e-09
194		3.054921113215547e+00,0.000000000000000e+00
	-2.283959875053712e+00,1.756998940966837e-09
195		3.072557365267481e+00,0.000000000000000e+00
	-2.283959875053712e+00,1.767142206547026e-09
196		3.090295432513625e+00,0.000000000000000e+00
	-2.283959875053712e+00,1.777344029838453e-09
197		3.108135902739511e+00,0.000000000000000e+00
	-2.283959875053712e+00,1.787604748898474e-09
198		3.126079367123991e+00,0.000000000000000e+00
	-2.283959875053712e+00,1.797924703736071e-09
199		3.144126420258832e+00,0.000000000000000e+00
	-2.283959875053712e+00,1.808304236323122e-09
200		3.162277660168416e+00,0.000000000000000e+00
	-2.283959875053712e+00,1.818743690605725e-09
201		3.180533688329558e+00,0.000000000000000e+00
	-2.283959875053712e+00,1.829243412515606e-09
202		3.198895109691435e+00,0.000000000000000e+00
	-2.283959875053712e+00,1.839803749981573e-09
203		3.217362532695637e+00,0.000000000000000e+00
	-2.283959875053712e+00,1.850425052941052e-09
204		3.235936569296321e+00,0.000000000000000e+00
	-2.283959875053712e+00,1.861107673351675e-09
205		3.254617834980497e+00,0.000000000000000e+00
	-2.283959875053712e+00,1.871851965202953e-09
206		3.273406948788421e+00,0.000000000000000e+00
	-2.283959875053712e+00,1.882658284527997e-09
207		3.292304533334104e+00,0.000000000000000e+00
	-2.283959875053712e+00,1.893526989415322e-09
208		3.311311214825951e+00,0.000000000000000e+00
	-2.283959875053712e+00,1.904458440020708e-09
209		3.330427623087504e+00,0.000000000000000e+00
	-2.283959875053712e+00,1.915452998579140e-09
210		3.349654391578317e+00,0.000000000000000e+00
	-2.283959875053712e+00,1.926511029416806e-09
211		3.368992157414949e+00,0.000000000000000e+00
	-2.283959875053712e+00,1.937632898963174e-09
212		3.388441561392067e+00,0.000000000000000e+00
	-2.283959875053712e+00,1.948818975763128e-09
213		3.408003248003692e+00,0.000000000000000e+00
	-2.283959875053712e+00,1.960069630489192e-09
214		3.427677865464546e+00,0.000000000000000e+00
	-2.283959875053712e+00,1.971385235953800e-09
215		3.447466065731537e+00,0.000000000000000e+00
	-2.283959875053712e+00,1.982766167121658e-09
216		3.467368504525360e+00,0.000000000000000e+00
	-2.283959875053712e+00,1.994212801122167e-09
217		3.487385841352228e+00,0.000000000000000e+00
	-2.283959875053712e+00,2.005725517261918e-09
218		3.507518739525725e+00,0.000000000000000e+00
	-2.283959875053712e+00,2.017304697037266e-09
219		3.527767866188785e+00,0.000000000000000e+00
	-2.283959875053712e+00,2.028950724146964e-09
220		3.548133892335800e+00,0.000000000000000e+00
	-2.283959875053712e+00,2.040663984504887e-09
221		3.568617492834858e+00,0.000000000000000e+00
	-2.283959875053712e+00,2.052444866252812e-09
222		3.589219346450099e+00,0.000000000000000e+00
	-2.283959875053712e+00,2.064293759773284e-09
223		3.609940135864213e+00,0.000000000000000e+00
	-2.283959875053712e+00,2.076211057702550e-09
224		3.630780547701061e+00,0.000000000000000e+00
	-2.283959875053712e+00,2.088197154943573e-09
225		3.651741272548425e+00,0.000000000000000e+00
	-2.283959875053712e+00,2.100252448679113e-09
226		3.672823004980895e+00,0.000000000000000e+00
	-2.283959875053712e+00,2.112377338384892e-09
227		3.694026443582883e+00,0.000000000000000e+00
	-2.283959875053712e+00,2.124572225842832e-09
228		3.715352290971774e+00,0.000000000000000e+00
	-2.283959875053712e+00,2.136837515154366e-09
229		3.736801253821207e+00,0.000000000000000e+00
	-2.283959875053712e+00,2.149173612753831e-09
230		3.758374042884492e+00,0.000000000000000e+00
	-2.283959875053712e+00,2.161580927421932e-09
231		3.780071373018162e+00,0.000000000000000e+00
	-2.283959875053712e+00,2.174059870299294e-09
232		3.801893963205663e+00,0.000000000000000e+00
	-2.283959875053712e+00,2.186610854900083e-09
233		3.823842536581178e+00,0.000000000000000e+00
	-2.283959875053712e+00,2.199234297125707e-09
234		3.845917820453588e+00,0.000000000000000e+00
	-2.283959875053712e+00,2.211930615278597e-09
235		3.868120546330575e+00,0.000000000000000e+00
	-2.283959875053712e+00,2.224700230076074e-09
236		3.890451449942860e+00,0.000000000000000e+00
	-2.283959875053712e+00,2.237543564664285e-09
237		3.912911271268584e+00,0.000000000000000e+00
	-2.283959875053712e+00,2.250461044632226e-09
238		3.935500754557829e+00,0.000000000000000e+00
	-2.283959875053712e+00,2.263453098025846e-09
239		3.958220648357280e+00,0.000000000000000e+00
	-2.283959875053712e+00,2.276520155362228e-09
240		3.981071705535028e+00,0.000000000000000e+00
	-2.283959875053712e+00,2.289662649643862e-09
241		4.004054683305520e+00,0.000000000000000e+00
	-2.283959875053712e+00,2.302881016372983e-09
242		4.027170343254648e+00,0.000000000000000e+00
	-2.283959875053712e+00,2.316175693566011e-09
243		4.050419451364989e+00,0.000000000000000e+00
	-2.283959875053712e+00,2.329547121768062e-09
244		4.073802778041185e+00,0.000000000000000e+00
	-2.283959875053712e+00,2.342995744067548e-09
245		4.097321098135473e+00,0.000000000000000e+00
	-2.283959875053712e+00,2.356522006110854e-09
246		4.120975190973360e+00,0.000000000000000e+00
	-2.283959875053712e+00,2.370126356117114e-09
247		4.144765840379450e+00,0.000000000000000e+00
	-2.283959875053712e+00,2.383809244893059e-09
248		4.168693834703413e+00,0.000000000000000e+00
	-2.283959875053712e+00,2.397571125847953e-09
249		4.192759966846114e+00,0.000000000000000e+00
	-2.283959875053712e+00,2.411412455008622e-09
250		4.216965034285883e+00,0.000000000000000e+00
	-2.283959875053712e+00,2.425333691034563e-09
251		4.241309839104942e+00,0.000000000000000e+00
	-2.283959875053712e+00,2.439335295233144e-09
252		4.265795188015987e+00,0.000000000000000e+00
	-2.283959875053712e+00,2.453417731574889e-09
253		4.290421892388916e+00,0.000000000000000e+00
	-2.283959875053712e+00,2.467581466708852e-09
254		4.315190768277715e+00,0.000000000000000e+00
	-2.283959875053712e+00,2.481826969978084e-09
255		4.340102636447502e+00,0.000000000000000e+00
	-2.283959875053712e+00,2.496154713435181e-09
256		4.365158322401724e+00,0.000000000000000e+00
	-2.283959875053712e+00,2.510565171857929e-09
257		4.390358656409512e+00,0.000000000000000e+00
	-2.283959875053712e+00,2.525058822765034e-09
258		4.415704473533191e+00,0.000000000000000e+00
	-2.283959875053712e+00,2.539636146431952e-09
259		4.441196613655956e+00,0.000000000000000e+00
	-2.283959875053712e+00,2.554297625906796e-09
260		4.466835921509698e+00,0.000000000000000e+00
	-2.283959875053712e+00,2.569043747026347e-09
261		4.492623246703002e+00,0.000000000000000e+00
	-2.283959875053712e+00,2.583874998432152e-09
262		4.518559443749292e+00,0.000000000000000e+00
	-2.283959875053712e+00,2.598791871586717e-09
263		4.544645372095157e+00,0.000000000000000e+00
	-2.283959875053712e+00,2.613794860789792e-09
264		4.570881896148820e+00,0.000000000000000e+00
	-2.283959875053712e+00,2.628884463194751e-09
265		4.597269885308792e+00,0.000000000000000e+00
	-2.283959875053712e+00,2.644061178825066e-09
266		4.623810213992674e+00,0.000000000000000e+00
	-2.283959875053712e+00,2.659325510590873e-09
267		4.650503761666135e+00,0.000000000000000e+00
	-2.283959875053712e+00,2.674677964305644e-09
268		4.677351412872055e+00,0.000000000000000e+00
	-2.283959875053712e+00,2.690119048702942e-09
269		4.704354057259835e+00,0.000000000000000e+00
	-2.283959875053712e+00,2.705649275453280e-09
270		4.731512589614879e+00,0.000000000000000e+00
	-2.283959875053712e+00,2.721269159181080e-09
271		4.758827909888244e+00,0.000000000000000e+00
	-2.283959875053712e+00,2.736979217481719e-09
272		4.786300923226460e+00,0.000000000000000e+00
	-2.283959875053712e+00,2.752779970938690e-09
273		4.813932540001524e+00,0.000000000000000e+00
	-2.283959875053712e+00,2.768671943140842e-09
274		4.841723675841071e+00,0.000000000000000e+00
	-2.283959875053712e+00,2.784655660699740e-09
275		4.869675251658710e+00,0.000000000000000e+00
	-2.283959875053712e+00,2.800731653267107e-09
276		4.897788193684542e+00,0.000000000000000e+00
	-2.283959875053712e+00,2.816900453552380e-09
277		4.926063433495853e+00,0.000000000000000e+00
	-2.283959875053712e+00,2.833162597340364e-09
278		4.954501908047983e+00,0.000000000000000e+00
	-2.283959875053712e+00,2.849518623508978e-09
279		4.983104559705377e+00,0.000000000000000e+00
	-2.283959875053712e+00,2.865969074047122e-09
280		5.011872336272805e+00,0.000000000000000e+00
	-2.283959875053712e+00,2.882514494072630e-09
281		5.040806191026777e+00,0.000000000000000e+00
	-2.283959875053712e+00,2.899155431850335e-09
282		5.069907082747127e+00,0.000000000000000e+00
	-2.283959875053712e+00,2.915892438810238e-09
283		5.099175975748786e+00,0.000000000000000e+00
	-2.283959875053712e+00,2.932726069565782e-09
284		5.128613839913734e+00,0.000000000000000e+00
	-2.283959875053712e+00,2.949656881932226e-09
285		5.158221650723143e+00,0.000000000000000e+00
	-2.283959875053712e+00,2.966685436945132e-09
286		5.188000389289698e+00,0.000000000000000e+00
	-2.283959875053712e+00,2.983812298878955e-09
287		5.217951042390110e+00,0.000000000000000e+00
	-2.283959875053712e+00,3.001038035265745e-09
288		5.248074602497814e+00,0.000000000000000e+00
	-2.283959875053712e+00,3.018363216913947e-09
289		5.278372067815857e+00,0.000000000000000e+00
	-2.283959875053712e+00,3.035788417927321e-09
290		5.308844442309973e+00,0.000000000000000e+00
	-2.283959875053712e+00,3.053314215723962e-09
291		5.339492735741857e+00,0.000000000000000e+00
	-2.283959875053712e+00,3.070941191055440e-09
292		5.370317963702618e+00,0.000000000000000e+00
	-2.283959875053712e+00,3.088669928026036e-09
293		5.401321147646440e+00,0.000000000000000e+00
	-2.283959875053712e+00,3.106501014112104e-09
294		5.432503314924425e+00,0.000000000000000e+00
	-2.283959875053712e+00,3.124435040181538e-09
295		5.463865498818635e+00,0.000000000000000e+00
	-2.283959875053712e+00,3.142472600513345e-09
296		5.495408738576340e+00,0.000000000000000e+00
	-2.283959875053712e+00,3.160614292817346e-09
297		5.527134079444444e+00,0.000000000000000e+00
	-2.283959875053712e+00,3.178860718253974e-09
298		5.559042572704132e+00,0.000000000000000e+00
	-2.283959875053712e+00,3.197212481454205e-09
299		5.591135275705699e+00,0.000000000000000e+00
	-2.283959875053712e+00,3.215670190539585e-09
300		5.623413251903589e+00,0.000000000000000e+00
	-2.283959875053712e+00,3.234234457142381e-09
301		5.655877570891638e+00,0.000000000000000e+00
	-2.283959875053712e+00,3.252905896425857e-09
302		5.688529308438514e+00,0.000000000000000e+00
	-2.283959875053712e+00,3.271685127104649e-09
303		5.721369546523364e+00,0.000000000000000e+00
	-2.283959875053712e+00,3.290572771465275e-09
304		5.754399373371671e+00,0.000000000000000e+00
	-2.283959875053712e+00,3.309569455386748e-09
305		5.787619883491309e+00,0.000000000000000e+00
	-2.283959875053712e+00,3.328675808361325e-09
306		5.821032177708817e+00,0.000000000000000e+00
	-2.283959875053712e+00,3.347892463515357e-09
307		5.854637363205876e+00,0.000000000000000e+00
	-2.283959875053712e+00,3.367220057630276e-09
308		5.888436553555995e+00,0.000000000000000e+00
	-2.283959875053712e+00,3.386659231163693e-09
309		5.922430868761412e+00,0.000000000000000e+00
	-2.283959875053712e+00,3.406210628270619e-09
310		5.956621435290212e+00,0.000000000000000e+00
	-2.283959875053712e+00,3.425874896824815e-09
311		5.991009386113647e+00,0.000000000000000e+00
	-2.283959875053712e+00,3.445652688440259e-09
312		6.025595860743686e+00,0.000000000000000e+00
	-2.283959875053712e+00,3.465544658492733e-09