Title: * GA CMOS Amp | W=1.0013222134337229e-06 L=2.5088273008401644e-07 Vbias=1.5
Date: Sat Sep  6 22:09:24 2025
Plotname: AC Analysis
Flags: complex forward log
No. Variables: 13
No. Points:          901
Offset:    0.0000000000000000e+00
Command: Linear Technology Corporation LTspice
Variables:
	0	frequency	frequency
	1	V(out)	voltage
	2	V(g)	voltage
	3	V(vdd)	voltage
	4	V(m1#dbody)	voltage
	5	V(m1#sbody)	voltage
	6	Id(M1)	device_current
	7	Ig(M1)	device_current
	8	Ib(M1)	device_current
	9	Is(M1)	device_current
	10	I(Rload)	device_current
	11	I(Vg)	device_current
	12	I(Vdd)	device_current
Values:
0		1.000000000000000e+00,0.000000000000000e+00
	-9.228534991071539e-02,1.022128521680397e-10
	1.000000000000000e+00,0.000000000000000e+00
	0.000000000000000e+00,0.000000000000000e+00
	6.468178274560547e-06,1.387862509188713e-14
	6.468178966700465e-06,1.577948782526725e-14
	9.228534991071536e-06,-1.022128521680398e-14
	4.014167986077762e-06,6.402721803389526e-14
	-3.449695405371012e-06,-8.289100330919267e-15
	-9.793007571778287e-06,-4.551683248617202e-14
	-9.228534991071540e-06,1.022128521680397e-14
	-4.014167986232664e-06,-6.402721803389526e-14
	-9.228534991071540e-06,1.022128521680397e-14
1		1.023292992280754e+00,0.000000000000000e+00
	-9.228534991071539e-02,1.045936953445838e-10
	1.000000000000000e+00,0.000000000000000e+00
	0.000000000000000e+00,0.000000000000000e+00
	6.468178274560547e-06,1.420189979901994e-14
	6.468178966700465e-06,1.614703931337546e-14
	9.228534991071536e-06,-1.045936953445838e-14
	4.014167986077762e-06,6.551860352931695e-14
	-3.449695405371012e-06,-8.482178280941769e-15
	-9.793007571778287e-06,-4.657705571391679e-14
	-9.228534991071540e-06,1.045936953445838e-14
	-4.014167986232664e-06,-6.551860352931695e-14
	-9.228534991071540e-06,1.045936953445838e-14
2		1.047128548050899e+00,0.000000000000000e+00
	-9.228534991071539e-02,1.070299954828607e-10
	1.000000000000000e+00,0.000000000000000e+00
	0.000000000000000e+00,0.000000000000000e+00
	6.468178274560547e-06,1.453270454141055e-14
	6.468178966700465e-06,1.652315217545895e-14
	9.228534991071536e-06,-1.070299954828607e-14
	4.014167986077762e-06,6.704472785557111e-14
	-3.449695405371012e-06,-8.679753594163725e-15
	-9.793007571778287e-06,-4.766197471312130e-14
	-9.228534991071540e-06,1.070299954828607e-14
	-4.014167986232664e-06,-6.704472785557110e-14
	-9.228534991071540e-06,1.070299954828607e-14
3		1.071519305237606e+00,0.000000000000000e+00
	-9.228534991071539e-02,1.095230443414521e-10
	1.000000000000000e+00,0.000000000000000e+00
	0.000000000000000e+00,0.000000000000000e+00
	6.468178274560547e-06,1.487121471611211e-14
	6.468178966700465e-06,1.690802583153564e-14
	9.228534991071536e-06,-1.095230443414521e-14
	4.014167986077762e-06,6.860640018397619e-14
	-3.449695405371012e-06,-8.881931027631428e-15
	-9.793007571778287e-06,-4.877216472219954e-14
	-9.228534991071540e-06,1.095230443414521e-14
	-4.014167986232664e-06,-6.860640018397617e-14
	-9.228534991071540e-06,1.095230443414521e-14
4		1.096478196143185e+00,0.000000000000000e+00
	-9.228534991071539e-02,1.120741637678622e-10
	1.000000000000000e+00,0.000000000000000e+00
	0.000000000000000e+00,0.000000000000000e+00
	6.468178274560547e-06,1.521760980569994e-14
	6.468178966700465e-06,1.730186434671238e-14
	9.228534991071536e-06,-1.120741637678622e-14
	4.014167986077762e-06,7.020444853387184e-14
	-3.449695405371012e-06,-9.088817778496236e-15
	-9.793007571778287e-06,-4.990821437858939e-14
	-9.228534991071540e-06,1.120741637678622e-14
	-4.014167986232664e-06,-7.020444853387184e-14
	-9.228534991071540e-06,1.120741637678622e-14
5		1.122018454301963e+00,0.000000000000000e+00
	-9.228534991071539e-02,1.146847063993790e-10
	1.000000000000000e+00,0.000000000000000e+00
	0.000000000000000e+00,0.000000000000000e+00
	6.468178274560547e-06,1.557207347343564e-14
	6.468178966700465e-06,1.770487653938301e-14
	9.228534991071536e-06,-1.146847063993791e-14
	4.014167986077762e-06,7.183972021164593e-14
	-3.449695405371012e-06,-9.300523540851930e-15
	-9.793007571778287e-06,-5.107072603085610e-14
	-9.228534991071540e-06,1.146847063993790e-14
	-4.014167986232664e-06,-7.183972021164594e-14
	-9.228534991071540e-06,1.146847063993790e-14
6		1.148153621496882e+00,0.000000000000000e+00
	-9.228534991071539e-02,1.173560563802603e-10
	1.000000000000000e+00,0.000000000000000e+00
	0.000000000000000e+00,0.000000000000000e+00
	6.468178274560547e-06,1.593479366064771e-14
	6.468178966700465e-06,1.811727609194656e-14
	9.228534991071536e-06,-1.173560563802603e-14
	4.014167986077762e-06,7.351308225998733e-14
	-3.449695405371012e-06,-9.517160563895966e-15
	-9.793007571778287e-06,-5.226031605806533e-14
	-9.228534991071540e-06,1.173560563802603e-14
	-4.014167986232664e-06,-7.351308225998733e-14
	-9.228534991071540e-06,1.173560563802603e-14
7		1.174897554939529e+00,0.000000000000000e+00
	-9.228534991071539e-02,1.200896300956254e-10
	1.000000000000000e+00,0.000000000000000e+00
	0.000000000000000e+00,0.000000000000000e+00
	6.468178274560547e-06,1.630596268638059e-14
	6.468178966700465e-06,1.853928166410457e-14
	9.228534991071536e-06,-1.200896300956254e-14
	4.014167986077762e-06,7.522542191760366e-14
	-3.449695405371012e-06,-9.738843711445491e-15
	-9.793007571778287e-06,-5.347761519659562e-14
	-9.228534991071540e-06,1.200896300956254e-14
	-4.014167986232664e-06,-7.522542191760367e-14
	-9.228534991071540e-06,1.200896300956254e-14
8		1.202264434617413e+00,0.000000000000000e+00
	-9.228534991071539e-02,1.228868769224415e-10
	1.000000000000000e+00,0.000000000000000e+00
	0.000000000000000e+00,0.000000000000000e+00
	6.468178274560547e-06,1.668577734936472e-14
	6.468178966700465e-06,1.897111700879728e-14
	9.228534991071536e-06,-1.228868769224415e-14
	4.014167986077762e-06,7.697764708964689e-14
	-3.449695405371012e-06,-9.965690522839663e-15
	-9.793007571778287e-06,-5.472326887456307e-14
	-9.228534991071540e-06,1.228868769224415e-14
	-4.014167986232664e-06,-7.697764708964688e-14
	-9.228534991071540e-06,1.228868769224415e-14
9		1.230268770812381e+00,0.000000000000000e+00
	-9.228534991071539e-02,1.257492799980019e-10
	1.000000000000000e+00,0.000000000000000e+00
	0.000000000000000e+00,0.000000000000000e+00
	6.468178274560547e-06,1.707443903236185e-14
	6.468178966700465e-06,1.941301109084048e-14
	9.228534991071536e-06,-1.257492799980019e-14
	4.014167986077762e-06,7.877068682909663e-14
	-3.449695405371012e-06,-1.019782127526055e-14
	-9.793007571778287e-06,-5.599793755403590e-14
	-9.228534991071540e-06,1.257492799980019e-14
	-4.014167986232664e-06,-7.877068682909663e-14
	-9.228534991071540e-06,1.257492799980019e-14
10		1.258925411794167e+00,0.000000000000000e+00
	-9.228534991071539e-02,1.286783570063057e-10
	1.000000000000000e+00,0.000000000000000e+00
	0.000000000000000e+00,0.000000000000000e+00
	6.468178274560547e-06,1.747215380894086e-14
	6.468178966700465e-06,1.986519820832562e-14
	9.228534991071536e-06,-1.286783570063058e-14
	4.014167986077762e-06,8.060549182935650e-14
	-3.449695405371012e-06,-1.043535904750571e-14
	-9.793007571778287e-06,-5.730229708122021e-14
	-9.228534991071540e-06,1.286783570063058e-14
	-4.014167986232664e-06,-8.060549182935650e-14
	-9.228534991071540e-06,1.286783570063058e-14
11		1.288249551693134e+00,0.000000000000000e+00
	-9.228534991071539e-02,1.316756609827538e-10
	1.000000000000000e+00,0.000000000000000e+00
	0.000000000000000e+00,0.000000000000000e+00
	6.468178274560547e-06,1.787913255274067e-14
	6.468178966700465e-06,2.032791811684781e-14
	9.228534991071536e-06,-1.316756609827538e-14
	4.014167986077762e-06,8.248303492832409e-14
	-3.449695405371012e-06,-1.067842978524616e-14
	-9.793007571778287e-06,-5.863703904480255e-14
	-9.228534991071540e-06,1.316756609827538e-14
	-4.014167986232664e-06,-8.248303492832408e-14
	-9.228534991071540e-06,1.316756609827538e-14
12		1.318256738556407e+00,0.000000000000000e+00
	-9.228534991071539e-02,1.347427811375882e-10
	1.000000000000000e+00,0.000000000000000e+00
	0.000000000000000e+00,0.000000000000000e+00
	6.468178274560547e-06,1.829559104927824e-14
	6.468178966700465e-06,2.080141615662733e-14
	9.228534991071536e-06,-1.347427811375882e-14
	4.014167986077762e-06,8.440431162420271e-14
	-3.449695405371012e-06,-1.092716236780446e-14
	-9.793007571778287e-06,-6.000287114263942e-14
	-9.228534991071540e-06,1.347427811375882e-14
	-4.014167986232664e-06,-8.440431162420270e-14
	-9.228534991071540e-06,1.347427811375882e-14
13		1.348962882591653e+00,0.000000000000000e+00
	-9.228534991071539e-02,1.378813436985134e-10
	1.000000000000000e+00,0.000000000000000e+00
	0.000000000000000e+00,0.000000000000000e+00
	6.468178274560547e-06,1.872175011036091e-14
	6.468178966700465e-06,2.128594338259241e-14
	9.228534991071536e-06,-1.378813436985134e-14
	4.014167986077762e-06,8.637034060332763e-14
	-3.449695405371012e-06,-1.118168867648828e-14
	-9.793007571778287e-06,-6.140051755698800e-14
	-9.228534991071540e-06,1.378813436985134e-14
	-4.014167986232664e-06,-8.637034060332763e-14
	-9.228534991071540e-06,1.378813436985134e-14
14		1.380384264602885e+00,0.000000000000000e+00
	-9.228534991071539e-02,1.410930127729429e-10
	1.000000000000000e+00,0.000000000000000e+00
	0.000000000000000e+00,0.000000000000000e+00
	6.468178274560547e-06,1.915783569116376e-14
	6.468178966700465e-06,2.178175669749171e-14
	9.228534991071536e-06,-1.410930127729430e-14
	4.014167986077762e-06,8.838216428028706e-14
	-3.449695405371012e-06,-1.144214366451552e-14
	-9.793007571778287e-06,-6.283071933847724e-14
	-9.228534991071540e-06,1.410930127729429e-14
	-4.014167986232664e-06,-8.838216428028706e-14
	-9.228534991071540e-06,1.410930127729429e-14
15		1.412537544622754e+00,0.000000000000000e+00
	-9.228534991071539e-02,1.443794912303314e-10
	1.000000000000000e+00,0.000000000000000e+00
	0.000000000000000e+00,0.000000000000000e+00
	6.468178274560547e-06,1.960407901003399e-14
	6.468178966700465e-06,2.228911898810764e-14
	9.228534991071536e-06,-1.443794912303315e-14
	4.014167986077762e-06,9.044084935062412e-14
	-3.449695405371012e-06,-1.170866542856836e-14
	-9.793007571778287e-06,-6.429423479902260e-14
	-9.228534991071540e-06,1.443794912303314e-14
	-4.014167986232664e-06,-9.044084935062412e-14
	-9.228534991071540e-06,1.443794912303314e-14
16		1.445439770745927e+00,0.000000000000000e+00
	-9.228534991071539e-02,1.477425216050587e-10
	1.000000000000000e+00,0.000000000000000e+00
	0.000000000000000e+00,0.000000000000000e+00
	6.468178274560547e-06,2.006071667108600e-14
	6.468178966700465e-06,2.280829926464244e-14
	9.228534991071536e-06,-1.477425216050587e-14
	4.014167986077762e-06,9.254748735641304e-14
	-3.449695405371012e-06,-1.198139528201393e-14
	-9.793007571778287e-06,-6.579183991389323e-14
	-9.228534991071540e-06,1.477425216050587e-14
	-4.014167986232664e-06,-9.254748735641304e-14
	-9.228534991071540e-06,1.477425216050587e-14
17		1.479108388168207e+00,0.000000000000000e+00
	-9.228534991071539e-02,1.511838870203444e-10
	1.000000000000000e+00,0.000000000000000e+00
	0.000000000000000e+00,0.000000000000000e+00
	6.468178274560547e-06,2.052799078965200e-14
	6.468178966700465e-06,2.333957280335089e-14
	9.228534991071536e-06,-1.511838870203445e-14
	4.014167986077762e-06,9.470319526500915e-14
	-3.449695405371012e-06,-1.226047782983055e-14
	-9.793007571778287e-06,-6.732432873314414e-14
	-9.228534991071540e-06,1.511838870203444e-14
	-4.014167986232664e-06,-9.470319526500915e-14
	-9.228534991071540e-06,1.511838870203444e-14
18		1.513561248436208e+00,0.000000000000000e+00
	-9.228534991071539e-02,1.547054121336838e-10
	1.000000000000000e+00,0.000000000000000e+00
	0.000000000000000e+00,0.000000000000000e+00
	6.468178274560547e-06,2.100614912065476e-14
	6.468178966700465e-06,2.388322129249544e-14
	9.228534991071536e-06,-1.547054121336837e-14
	4.014167986077762e-06,9.690911606127976e-14
	-3.449695405371012e-06,-1.254606104527915e-14
	-9.793007571778287e-06,-6.889251380263224e-14
	-9.228534991071540e-06,1.547054121336838e-14
	-4.014167986232664e-06,-9.690911606127977e-14
	-9.228534991071540e-06,1.547054121336838e-14
19		1.548816618912481e+00,0.000000000000000e+00
	-9.228534991071539e-02,1.583089641043045e-10
	1.000000000000000e+00,0.000000000000000e+00
	0.000000000000000e+00,0.000000000000000e+00
	6.468178274560547e-06,2.149544518997054e-14
	6.468178966700465e-06,2.443953298170108e-14
	9.228534991071536e-06,-1.583089641043046e-14
	4.014167986077762e-06,9.916641935362985e-14
	-3.449695405371012e-06,-1.283829634836070e-14
	-9.793007571778287e-06,-7.049722659483869e-14
	-9.228534991071540e-06,1.583089641043045e-14
	-4.014167986232664e-06,-9.916641935362985e-14
	-9.228534991071540e-06,1.583089641043045e-14
20		1.584893192461113e+00,0.000000000000000e+00
	-9.228534991071539e-02,1.619964535831603e-10
	1.000000000000000e+00,0.000000000000000e+00
	0.000000000000000e+00,0.000000000000000e+00
	6.468178274560547e-06,2.199613842885190e-14
	6.468178966700465e-06,2.500880283478908e-14
	9.228534991071536e-06,-1.619964535831603e-14
	4.014167986077762e-06,1.014763019941440e-13
	-3.449695405371012e-06,-1.313733868610110e-14
	-9.793007571778287e-06,-7.213931794972683e-14
	-9.228534991071540e-06,1.619964535831603e-14
	-4.014167986232664e-06,-1.014763019941440e-13
	-9.228534991071540e-06,1.619964535831603e-14
21		1.621810097358929e+00,0.000000000000000e+00
	-9.228534991071539e-02,1.657698357259824e-10
	1.000000000000000e+00,0.000000000000000e+00
	0.000000000000000e+00,0.000000000000000e+00
	6.468178274560547e-06,2.250849431148154e-14
	6.468178966700465e-06,2.559133268617072e-14
	9.228534991071536e-06,-1.657698357259825e-14
	4.014167986077762e-06,1.038399887131731e-13
	-3.449695405371012e-06,-1.344334661470611e-14
	-9.793007571778287e-06,-7.381965852586870e-14
	-9.228534991071540e-06,1.657698357259824e-14
	-4.014167986232664e-06,-1.038399887131731e-13
	-9.228534991071540e-06,1.657698357259824e-14
22		1.659586907437560e+00,0.000000000000000e+00
	-9.228534991071539e-02,1.696311112299295e-10
	1.000000000000000e+00,0.000000000000000e+00
	0.000000000000000e+00,0.000000000000000e+00
	6.468178274560547e-06,2.303278449573028e-14
	6.468178966700465e-06,2.618743140088390e-14
	9.228534991071536e-06,-1.696311112299297e-14
	4.014167986077762e-06,1.062587327687026e-13
	-3.449695405371012e-06,-1.375648238362996e-14
	-9.793007571778287e-06,-7.553913926207966e-14
	-9.228534991071540e-06,1.696311112299295e-14
	-4.014167986232664e-06,-1.062587327687026e-13
	-9.228534991071540e-06,1.696311112299295e-14
23		1.698243652461743e+00,0.000000000000000e+00
	-9.228534991071539e-02,1.735823273943841e-10
	1.000000000000000e+00,0.000000000000000e+00
	0.000000000000000e+00,0.000000000000000e+00
	6.468178274560547e-06,2.356928696719360e-14
	6.468178966700465e-06,2.679741503835748e-14
	9.228534991071536e-06,-1.735823273943841e-14
	4.014167986077762e-06,1.087338166108467e-13
	-3.449695405371012e-06,-1.407691202160219e-14
	-9.793007571778287e-06,-7.729867184980610e-14
	-9.228534991071540e-06,1.735823273943841e-14
	-4.014167986232664e-06,-1.087338166108467e-13
	-9.228534991071540e-06,1.735823273943841e-14
24		1.737800828749374e+00,0.000000000000000e+00
	-9.228534991071539e-02,1.776255792064567e-10
	1.000000000000000e+00,0.000000000000000e+00
	0.000000000000000e+00,0.000000000000000e+00
	6.468178274560547e-06,2.411828618658332e-14
	6.468178966700465e-06,2.742160701999010e-14
	9.228534991071536e-06,-1.776255792064568e-14
	4.014167986077762e-06,1.112665525618201e-13
	-3.449695405371012e-06,-1.440480542465822e-14
	-9.793007571778287e-06,-7.909918921651617e-14
	-9.228534991071540e-06,1.776255792064567e-14
	-4.014167986232664e-06,-1.112665525618201e-13
	-9.228534991071540e-06,1.776255792064567e-14
25		1.778279410038922e+00,0.000000000000000e+00
	-9.228534991071539e-02,1.817630104517772e-10
	1.000000000000000e+00,0.000000000000000e+00
	0.000000000000000e+00,0.000000000000000e+00
	6.468178274560547e-06,2.468007324055242e-14
	6.468178966700465e-06,2.806033830063260e-14
	9.228534991071536e-06,-1.817630104517772e-14
	4.014167986077762e-06,1.138582835117486e-13
	-3.449695405371012e-06,-1.474033644622055e-14
	-9.793007571778287e-06,-8.094164602035038e-14
	-9.228534991071540e-06,1.817630104517772e-14
	-4.014167986232664e-06,-1.138582835117487e-13
	-9.228534991071540e-06,1.817630104517772e-14
26		1.819700858609982e+00,0.000000000000000e+00
	-9.228534991071539e-02,1.859968148511571e-10
	1.000000000000000e+00,0.000000000000000e+00
	0.000000000000000e+00,0.000000000000000e+00
	6.468178274560547e-06,2.525494599603305e-14
	6.468178966700465e-06,2.871394754406457e-14
	9.228534991071536e-06,-1.859968148511571e-14
	4.014167986077762e-06,1.165103836306877e-13
	-3.449695405371012e-06,-1.508368298927808e-14
	-9.793007571778287e-06,-8.282701915629393e-14
	-9.228534991071540e-06,1.859968148511571e-14
	-4.014167986232664e-06,-1.165103836306877e-13
	-9.228534991071540e-06,1.859968148511571e-14
27		1.862087136662866e+00,0.000000000000000e+00
	-9.228534991071539e-02,1.903292372237299e-10
	1.000000000000000e+00,0.000000000000000e+00
	0.000000000000000e+00,0.000000000000000e+00
	6.468178274560547e-06,2.584320925816951e-14
	6.468178966700465e-06,2.938278130255846e-14
	9.228534991071536e-06,-1.903292372237299e-14
	4.014167986077762e-06,1.192242590972250e-13
	-3.449695405371012e-06,-1.543502710071267e-14
	-9.793007571778287e-06,-8.475630827413936e-14
	-9.228534991071540e-06,1.903292372237299e-14
	-4.014167986232664e-06,-1.192242590972250e-13
	-9.228534991071540e-06,1.903292372237299e-14
28		1.905460717963246e+00,0.000000000000000e+00
	-9.228534991071539e-02,1.947625746771841e-10
	1.000000000000000e+00,0.000000000000000e+00
	0.000000000000000e+00,0.000000000000000e+00
	6.468178274560547e-06,2.644517493192996e-14
	6.468178966700465e-06,3.006719420062603e-14
	9.228534991071536e-06,-1.947625746771841e-14
	4.014167986077762e-06,1.220013488440553e-13
	-3.449695405371012e-06,-1.579455506782280e-14
	-9.793007571778287e-06,-8.673053630851410e-14
	-9.228534991071540e-06,1.947625746771841e-14
	-4.014167986232664e-06,-1.220013488440553e-13
	-9.228534991071540e-06,1.947625746771841e-14
29		1.949844599758044e+00,0.000000000000000e+00
	-9.228534991071539e-02,1.992991778257196e-10
	1.000000000000000e+00,0.000000000000000e+00
	0.000000000000000e+00,0.000000000000000e+00
	6.468178274560547e-06,2.706116218748261e-14
	6.468178966700465e-06,3.076754912304515e-14
	9.228534991071536e-06,-1.992991778257195e-14
	4.014167986077762e-06,1.248431253209215e-13
	-3.449695405371012e-06,-1.616245751709555e-14
	-9.793007571778287e-06,-8.875075002125399e-14
	-9.228534991071540e-06,1.992991778257196e-14
	-4.014167986232664e-06,-1.248431253209215e-13
	-9.228534991071540e-06,1.992991778257196e-14
30		1.995262314968878e+00,0.000000000000000e+00
	-9.228534991071539e-02,2.039414520363747e-10
	1.000000000000000e+00,0.000000000000000e+00
	0.000000000000000e+00,0.000000000000000e+00
	6.468178274560547e-06,2.769149762942387e-14
	6.468178966700465e-06,3.148421740726596e-14
	9.228534991071536e-06,-2.039414520363747e-14
	4.014167986077762e-06,1.277510952753269e-13
	-3.449695405371012e-06,-1.653892951527927e-14
	-9.793007571778287e-06,-9.081802055641019e-14
	-9.228534991071540e-06,2.039414520363747e-14
	-4.014167986232664e-06,-1.277510952753269e-13
	-9.228534991071540e-06,2.039414520363747e-14
31		2.041737944669527e+00,0.000000000000000e+00
	-9.228534991071539e-02,2.086918587043837e-10
	1.000000000000000e+00,0.000000000000000e+00
	0.000000000000000e+00,0.000000000000000e+00
	6.468178274560547e-06,2.833651546994856e-14
	6.468178966700465e-06,3.221757904029900e-14
	9.228534991071536e-06,-2.086918587043837e-14
	4.014167986077762e-06,1.307268005514330e-13
	-3.449695405371012e-06,-1.692417067281061e-14
	-9.793007571778287e-06,-9.293344400818401e-14
	-9.228534991071540e-06,2.086918587043837e-14
	-4.014167986232664e-06,-1.307268005514330e-13
	-9.228534991071540e-06,2.086918587043837e-14
32		2.089296130854037e+00,0.000000000000000e+00
	-9.228534991071539e-02,2.135529165582412e-10
	1.000000000000000e+00,0.000000000000000e+00
	0.000000000000000e+00,0.000000000000000e+00
	6.468178274560547e-06,2.899655770605354e-14
	6.468178966700465e-06,3.296802286018926e-14
	9.228534991071536e-06,-2.135529165582411e-14
	4.014167986077762e-06,1.337718189075652e-13
	-3.449695405371012e-06,-1.731838524965055e-14
	-9.793007571778287e-06,-9.509814200209056e-14
	-9.228534991071540e-06,2.135529165582412e-14
	-4.014167986232664e-06,-1.337718189075652e-13
	-9.228534991071540e-06,2.135529165582412e-14
33		2.137962089502230e+00,0.000000000000000e+00
	-9.228534991071539e-02,2.185272029951648e-10
	1.000000000000000e+00,0.000000000000000e+00
	0.000000000000000e+00,0.000000000000000e+00
	6.468178274560547e-06,2.967197430086909e-14
	6.468178966700465e-06,3.373594676218338e-14
	9.228534991071536e-06,-2.185272029951648e-14
	4.014167986077762e-06,1.368877648527616e-13
	-3.449695405371012e-06,-1.772178226358579e-14
	-9.793007571778287e-06,-9.731326228965930e-14
	-9.228534991071540e-06,2.185272029951648e-14
	-4.014167986232664e-06,-1.368877648527616e-13
	-9.228534991071540e-06,2.185272029951648e-14
34		2.187761623949550e+00,0.000000000000000e+00
	-9.228534991071539e-02,2.236173554476660e-10
	1.000000000000000e+00,0.000000000000000e+00
	0.000000000000000e+00,0.000000000000000e+00
	6.468178274560547e-06,3.036312336921397e-14
	6.468178966700465e-06,3.452175790969885e-14
	9.228534991071536e-06,-2.236173554476659e-14
	4.014167986077762e-06,1.400762905028066e-13
	-3.449695405371012e-06,-1.813457560105269e-14
	-9.793007571778287e-06,-9.957997935698733e-14
	-9.228534991071540e-06,2.236173554476660e-14
	-4.014167986232664e-06,-1.400762905028066e-13
	-9.228534991071540e-06,2.236173554476660e-14
35		2.238721138568337e+00,0.000000000000000e+00
	-9.228534991071539e-02,2.288260727819511e-10
	1.000000000000000e+00,0.000000000000000e+00
	0.000000000000000e+00,0.000000000000000e+00
	6.468178274560547e-06,3.107037136747265e-14
	6.468178966700465e-06,3.532587295020753e-14
	9.228534991071536e-06,-2.288260727819511e-14
	4.014167986077762e-06,1.433390864562052e-13
	-3.449695405371012e-06,-1.855698413054277e-14
	-9.793007571778287e-06,-1.018994950474673e-13
	-9.228534991071540e-06,2.288260727819511e-14
	-4.014167986232664e-06,-1.433390864562052e-13
	-9.228534991071540e-06,2.288260727819511e-14
36		2.290867652767770e+00,0.000000000000000e+00
	-9.228534991071539e-02,2.341561167288963e-10
	1.000000000000000e+00,0.000000000000000e+00
	0.000000000000000e+00,0.000000000000000e+00
	6.468178274560547e-06,3.179409328789535e-14
	6.468178966700465e-06,3.614871823614761e-14
	9.228534991071536e-06,-2.341561167288965e-14
	4.014167986077762e-06,1.466778826905599e-13
	-3.449695405371012e-06,-1.898923181864958e-14
	-9.793007571778287e-06,-1.042730391990207e-13
	-9.228534991071540e-06,2.341561167288963e-14
	-4.014167986232664e-06,-1.466778826905599e-13
	-9.228534991071540e-06,2.341561167288963e-14
37		2.344228815319919e+00,0.000000000000000e+00
	-9.228534991071539e-02,2.396103133483539e-10
	1.000000000000000e+00,0.000000000000000e+00
	0.000000000000000e+00,0.000000000000000e+00
	6.468178274560547e-06,3.253467285742387e-14
	6.468178966700465e-06,3.699073005098134e-14
	9.228534991071536e-06,-2.396103133483539e-14
	4.014167986077762e-06,1.500944494798285e-13
	-3.449695405371012e-06,-1.943154784881883e-14
	-9.793007571778287e-06,-1.067018702961742e-13
	-9.228534991071540e-06,2.396103133483539e-14
	-4.014167986232664e-06,-1.500944494798284e-13
	-9.228534991071540e-06,2.396103133483539e-14
38		2.398832919019488e+00,0.000000000000000e+00
	-9.228534991071539e-02,2.451915545275661e-10
	1.000000000000000e+00,0.000000000000000e+00
	0.000000000000000e+00,0.000000000000000e+00
	6.468178274560547e-06,3.329250274114872e-14
	6.468178966700465e-06,3.785235484051832e-14
	9.228534991071536e-06,-2.451915545275663e-14
	4.014167986077762e-06,1.535905983329461e-13
	-3.449695405371012e-06,-1.988416674286447e-14
	-9.793007571778287e-06,-1.091872761373250e-13
	-9.228534991071540e-06,2.451915545275662e-14
	-4.014167986232664e-06,-1.535905983329461e-13
	-9.228534991071540e-06,2.451915545275662e-14
39		2.454708915685027e+00,0.000000000000000e+00
	-9.228534991071539e-02,2.509027995144829e-10
	1.000000000000000e+00,0.000000000000000e+00
	0.000000000000000e+00,0.000000000000000e+00
	6.468178274560547e-06,3.406798475050527e-14
	6.468178966700465e-06,3.873404944962687e-14
	9.228534991071536e-06,-2.509027995144828e-14
	4.014167986077762e-06,1.571681829543118e-13
	-3.449695405371012e-06,-2.034732848531524e-14
	-9.793007571778287e-06,-1.117305745175483e-13
	-9.228534991071540e-06,2.509027995144829e-14
	-4.014167986232664e-06,-1.571681829543118e-13
	-9.228534991071540e-06,2.509027995144829e-14
40		2.511886431509577e+00,0.000000000000000e+00
	-9.228534991071539e-02,2.567470764867933e-10
	1.000000000000000e+00,0.000000000000000e+00
	0.000000000000000e+00,0.000000000000000e+00
	6.468178274560547e-06,3.486153005631964e-14
	6.468178966700465e-06,3.963628136445937e-14
	9.228534991071536e-06,-2.567470764867933e-14
	4.014167986077762e-06,1.608291002266468e-13
	-3.449695405371012e-06,-2.082127865065765e-14
	-9.793007571778287e-06,-1.143331139273098e-13
	-9.228534991071540e-06,2.567470764867933e-14
	-4.014167986232664e-06,-1.608291002266468e-13
	-9.228534991071540e-06,2.567470764867933e-14
41		2.570395782768860e+00,0.000000000000000e+00
	-9.228534991071539e-02,2.627274841575064e-10
	1.000000000000000e+00,0.000000000000000e+00
	0.000000000000000e+00,0.000000000000000e+00
	6.468178274560547e-06,3.567355940681676e-14
	6.468178966700465e-06,4.055952896031953e-14
	9.228534991071536e-06,-2.627274841575063e-14
	4.014167986077762e-06,1.645752912167467e-13
	-3.449695405371012e-06,-2.130626853354285e-14
	-9.793007571778287e-06,-1.169962742674532e-13
	-9.228534991071540e-06,2.627274841575064e-14
	-4.014167986232664e-06,-1.645752912167467e-13
	-9.228534991071540e-06,2.627274841575064e-14
42		2.630267991895378e+00,0.000000000000000e+00
	-9.228534991071539e-02,2.688471934179291e-10
	1.000000000000000e+00,0.000000000000000e+00
	0.000000000000000e+00,0.000000000000000e+00
	6.468178274560547e-06,3.650450335070678e-14
	6.468178966700465e-06,4.150428175530327e-14
	9.228534991071536e-06,-2.688471934179291e-14
	4.014167986077762e-06,1.684087422046612e-13
	-3.449695405371012e-06,-2.180255528202634e-14
	-9.793007571778287e-06,-1.197214675808420e-13
	-9.228534991071540e-06,2.688471934179291e-14
	-4.014167986232664e-06,-1.684087422046612e-13
	-9.228534991071540e-06,2.688471934179291e-14
43		2.691534803926912e+00,0.000000000000000e+00
	-9.228534991071539e-02,2.751094490189153e-10
	1.000000000000000e+00,0.000000000000000e+00
	0.000000000000000e+00,0.000000000000000e+00
	6.468178274560547e-06,3.735480246546755e-14
	6.468178966700465e-06,4.247104066984779e-14
	9.228534991071536e-06,-2.751094490189153e-14
	4.014167986077762e-06,1.723314857368459e-13
	-3.449695405371012e-06,-2.231040203391129e-14
	-9.793007571778287e-06,-1.225101388010431e-13
	-9.228534991071540e-06,2.751094490189154e-14
	-4.014167986232664e-06,-1.723314857368459e-13
	-9.228534991071540e-06,2.751094490189154e-14
44		2.754228703338163e+00,0.000000000000000e+00
	-9.228534991071539e-02,2.815175712912753e-10
	1.000000000000000e+00,0.000000000000000e+00
	0.000000000000000e+00,0.000000000000000e+00
	6.468178274560547e-06,3.822490759094477e-14
	6.468178966700465e-06,4.346031829232615e-14
	9.228534991071536e-06,-2.815175712912754e-14
	4.014167986077762e-06,1.763456017038451e-13
	-3.449695405371012e-06,-2.283007805626771e-14
	-9.793007571778287e-06,-1.253637665184499e-13
	-9.228534991071540e-06,2.815175712912753e-14
	-4.014167986232664e-06,-1.763456017038451e-13
	-9.228534991071540e-06,2.815175712912753e-14
45		2.818382931264450e+00,0.000000000000000e+00
	-9.228534991071539e-02,2.880749579062598e-10
	1.000000000000000e+00,0.000000000000000e+00
	0.000000000000000e+00,0.000000000000000e+00
	6.468178274560547e-06,3.911528006839320e-14
	6.468178966700465e-06,4.447263915082842e-14
	9.228534991071536e-06,-2.880749579062598e-14
	4.014167986077762e-06,1.804532184430778e-13
	-3.449695405371012e-06,-2.336185888820137e-14
	-9.793007571778287e-06,-1.282838637642504e-13
	-9.228534991071540e-06,2.880749579062597e-14
	-4.014167986232664e-06,-1.804532184430777e-13
	-9.228534991071540e-06,2.880749579062597e-14
46		2.884031503126602e+00,0.000000000000000e+00
	-9.228534991071539e-02,2.947850856770488e-10
	1.000000000000000e+00,0.000000000000000e+00
	0.000000000000000e+00,0.000000000000000e+00
	6.468178274560547e-06,4.002639198508581e-14
	6.468178966700465e-06,4.550853999127342e-14
	9.228534991071536e-06,-2.947850856770487e-14
	4.014167986077762e-06,1.846565138673096e-13
	-3.449695405371012e-06,-2.390602648694830e-14
	-9.793007571778287e-06,-1.312719788126564e-13
	-9.228534991071540e-06,2.947850856770488e-14
	-4.014167986232664e-06,-1.846565138673096e-13
	-9.228534991071540e-06,2.947850856770488e-14
47		2.951209226666381e+00,0.000000000000000e+00
	-9.228534991071539e-02,3.016515124022057e-10
	1.000000000000000e+00,0.000000000000000e+00
	0.000000000000000e+00,0.000000000000000e+00
	6.468178274560547e-06,4.095872642462085e-14
	6.468178966700465e-06,4.656857006199856e-14
	9.228534991071536e-06,-3.016515124022058e-14
	4.014167986077762e-06,1.889577166194118e-13
	-3.449695405371012e-06,-2.446286937737230e-14
	-9.793007571778287e-06,-1.343296960018189e-13
	-9.228534991071540e-06,3.016515124022058e-14
	-4.014167986232664e-06,-1.889577166194118e-13
	-9.228534991071540e-06,3.016515124022058e-14
48		3.019951720402012e+00,0.000000000000000e+00
	-9.228534991071539e-02,3.086778787520682e-10
	1.000000000000000e+00,0.000000000000000e+00
	0.000000000000000e+00,0.000000000000000e+00
	6.468178274560547e-06,4.191277772305908e-14
	6.468178966700465e-06,4.765329140497845e-14
	9.228534991071536e-06,-3.086778787520682e-14
	4.014167986077762e-06,1.933591072540167e-13
	-3.449695405371012e-06,-2.503268280494453e-14
	-9.793007571778287e-06,-1.374586365738654e-13
	-9.228534991071540e-06,3.086778787520682e-14
	-4.014167986232664e-06,-1.933591072540167e-13
	-9.228534991071540e-06,3.086778787520682e-14
49		3.090295432513586e+00,0.000000000000000e+00
	-9.228534991071539e-02,3.158679101990795e-10