Title: * GA CMOS Amp | W=2.176621664078718e-05 L=6.817033609467396e-07 Vbias=1.3666186932818516
Date: Mon Sep  8 18:46:47 2025
Plotname: AC Analysis
Flags: complex forward log
No. Variables: 11
No. Points:          901
Offset:    0.0000000000000000e+00
Command: Linear Technology Corporation LTspice
Variables:
	0	frequency	frequency
	1	V(out)	voltage
	2	V(g)	voltage
	3	V(vdd)	voltage
	4	Id(M1)	device_current
	5	Ig(M1)	device_current
	6	Ib(M1)	device_current
	7	Is(M1)	device_current
	8	I(Rload)	device_current
	9	I(Vg)	device_current
	10	I(Vdd)	device_current
Values:
0		1.000000000000000e+00,0.000000000000000e+00
	-1.012339574028158e-01,3.635925809838861e-11
	1.000000000000000e+00,0.000000000000000e+00
	0.000000000000000e+00,0.000000000000000e+00
	1.012339574028154e-05,-3.635925809838843e-15
	3.030580053851942e-24,1.771706222178142e-13
	1.051124790506230e-13,1.791722656974687e-16
	-1.012339584539402e-05,-1.737138686736728e-13
	-1.012339574028158e-05,3.635925809838862e-15
	-3.030580053851942e-24,-1.771706222178142e-13
	-1.012339574028158e-05,3.635925809838862e-15
1		1.023292992280754e+00,0.000000000000000e+00
	-1.012339574028158e-01,3.720617401660832e-11
	1.000000000000000e+00,0.000000000000000e+00
	0.000000000000000e+00,0.000000000000000e+00
	1.012339574028154e-05,-3.720617401660828e-15
	3.173406891542001e-24,1.812974561535101e-13
	1.051124790506230e-13,1.833457238992599e-16
	-1.012339584539402e-05,-1.777601844757486e-13
	-1.012339574028158e-05,3.720617401660832e-15
	-3.173406891542001e-24,-1.812974561535101e-13
	-1.012339574028158e-05,3.720617401660832e-15
2		1.047128548050899e+00,0.000000000000000e+00
	-1.012339574028158e-01,3.807281714077357e-11
	1.000000000000000e+00,0.000000000000000e+00
	0.000000000000000e+00,0.000000000000000e+00
	1.012339574028154e-05,-3.807281714077348e-15
	3.322964950715093e-24,1.855204164002142e-13
	1.051124790506230e-13,1.876163944307906e-16
	-1.012339584539402e-05,-1.819007510805676e-13
	-1.012339574028158e-05,3.807281714077357e-15
	-3.322964950715093e-24,-1.855204164002142e-13
	-1.012339574028158e-05,3.807281714077357e-15
3		1.071519305237606e+00,0.000000000000000e+00
	-1.012339574028158e-01,3.895964697654018e-11
	1.000000000000000e+00,0.000000000000000e+00
	0.000000000000000e+00,0.000000000000000e+00
	1.012339574028154e-05,-3.895964697653989e-15
	3.479571464066325e-24,1.898417420273466e-13
	1.051124790506230e-13,1.919865416580176e-16
	-1.012339584539402e-05,-1.861377638713506e-13
	-1.012339574028158e-05,3.895964697654018e-15
	-3.479571464066325e-24,-1.898417420273466e-13
	-1.012339574028158e-05,3.895964697654018e-15
4		1.096478196143185e+00,0.000000000000000e+00
	-1.012339574028158e-01,3.986713373282562e-11
	1.000000000000000e+00,0.000000000000000e+00
	0.000000000000000e+00,0.000000000000000e+00
	1.012339574028154e-05,-3.986713373282552e-15
	3.643558615007111e-24,1.942637242589545e-13
	1.051124790506230e-13,1.964584826908317e-16
	-1.012339584539402e-05,-1.904734693683628e-13
	-1.012339574028158e-05,3.986713373282562e-15
	-3.643558615007111e-24,-1.942637242589545e-13
	-1.012339574028158e-05,3.986713373282562e-15
5		1.122018454301963e+00,0.000000000000000e+00
	-1.012339574028158e-01,4.079575857112012e-11
	1.000000000000000e+00,0.000000000000000e+00
	0.000000000000000e+00,0.000000000000000e+00
	1.012339574028154e-05,-4.079575857112016e-15
	3.815274242270744e-24,1.987887076885489e-13
	1.051124790506230e-13,2.010345886116742e-16
	-1.012339584539402e-05,-1.949101664200486e-13
	-1.012339574028158e-05,4.079575857112012e-15
	-3.815274242270744e-24,-1.987887076885489e-13
	-1.012339574028158e-05,4.079575857112012e-15
6		1.148153621496882e+00,0.000000000000000e+00
	-1.012339574028158e-01,4.174601386060474e-11
	1.000000000000000e+00,0.000000000000000e+00
	0.000000000000000e+00,0.000000000000000e+00
	1.012339574028154e-05,-4.174601386060444e-15
	3.995082577724961e-24,2.034190915222393e-13
	1.051124790506230e-13,2.057172857323755e-16
	-1.012339584539402e-05,-1.994502074219113e-13
	-1.012339574028158e-05,4.174601386060475e-15
	-3.995082577724961e-24,-2.034190915222394e-13
	-1.012339574028158e-05,4.174601386060475e-15
7		1.174897554939529e+00,0.000000000000000e+00
	-1.012339574028158e-01,4.271840343921206e-11
	1.000000000000000e+00,0.000000000000000e+00
	0.000000000000000e+00,0.000000000000000e+00
	1.012339574028154e-05,-4.271840343921191e-15
	4.183365018956582e-24,2.081573308508249e-13
	1.051124790506230e-13,2.105090568809321e-16
	-1.012339584539402e-05,-2.040959995637846e-13
	-1.012339574028158e-05,4.271840343921205e-15
	-4.183365018956582e-24,-2.081573308508249e-13
	-1.012339574028158e-05,4.271840343921205e-15
8		1.202264434617413e+00,0.000000000000000e+00
	-1.012339574028158e-01,4.371344288076776e-11
	1.000000000000000e+00,0.000000000000000e+00
	0.000000000000000e+00,0.000000000000000e+00
	1.012339574028154e-05,-4.371344288076764e-15
	4.380520938266930e-24,2.130059379515156e-13
	1.051124790506230e-13,2.154124427178818e-16
	-1.012339584539402e-05,-2.088500061061567e-13
	-1.012339574028158e-05,4.371344288076777e-15
	-4.380520938266930e-24,-2.130059379515156e-13
	-1.012339574028158e-05,4.371344288076777e-15
9		1.230268770812381e+00,0.000000000000000e+00
	-1.012339574028158e-01,4.473165976835467e-11
	1.000000000000000e+00,0.000000000000000e+00
	0.000000000000000e+00,0.000000000000000e+00
	1.012339574028154e-05,-4.473165976835437e-15
	4.586968529794014e-24,2.179674836199750e-13
	1.051124790506230e-13,2.204300430833002e-16
	-1.012339584539402e-05,-2.137147476862228e-13
	-1.012339574028158e-05,4.473165976835467e-15
	-4.586968529794014e-24,-2.179674836199750e-13
	-1.012339574028158e-05,4.473165976835467e-15
10		1.258925411794167e+00,0.000000000000000e+00
	-1.012339574028158e-01,4.577359397404428e-11
	1.000000000000000e+00,0.000000000000000e+00
	0.000000000000000e+00,0.000000000000000e+00
	1.012339574028154e-05,-4.577359397404414e-15
	4.803145696558376e-24,2.230445985333905e-13
	1.051124790506230e-13,2.255645183752743e-16
	-1.012339584539402e-05,-2.186928036543613e-13
	-1.012339574028158e-05,4.577359397404428e-15
	-4.803145696558376e-24,-2.230445985333905e-13
	-1.012339574028158e-05,4.577359397404428e-15
11		1.288249551693134e+00,0.000000000000000e+00
	-1.012339574028158e-01,4.683979794514407e-11
	1.000000000000000e+00,0.000000000000000e+00
	0.000000000000000e+00,0.000000000000000e+00
	1.012339574028154e-05,-4.683979794514383e-15
	5.029510979314099e-24,2.282399746452927e-13
	1.051124790506230e-13,2.308185909606010e-16
	-1.012339584539402e-05,-2.237868134417389e-13
	-1.012339574028158e-05,4.683979794514407e-15
	-5.029510979314099e-24,-2.282399746452927e-13
	-1.012339574028158e-05,4.683979794514407e-15
12		1.318256738556407e+00,0.000000000000000e+00
	-1.012339574028158e-01,4.793083699711240e-11
	1.000000000000000e+00,0.000000000000000e+00
	0.000000000000000e+00,0.000000000000000e+00
	1.012339574028154e-05,-4.793083699711221e-15
	5.266544529175230e-24,2.335563666128650e-13
	1.051124790506230e-13,2.361950466181118e-16
	-1.012339584539402e-05,-2.289994779597719e-13
	-1.012339574028158e-05,4.793083699711240e-15
	-5.266544529175230e-24,-2.335563666128650e-13
	-1.012339574028158e-05,4.793083699711240e-15
13		1.348962882591653e+00,0.000000000000000e+00
	-1.012339574028158e-01,4.904728961329622e-11
	1.000000000000000e+00,0.000000000000000e+00
	0.000000000000000e+00,0.000000000000000e+00
	1.012339574028154e-05,-4.904728961329619e-15
	5.514749126080667e-24,2.389965932574995e-13
	1.051124790506230e-13,2.416967360156858e-16
	-1.012339584539402e-05,-2.343335610321855e-13
	-1.012339574028158e-05,4.904728961329622e-15
	-5.514749126080667e-24,-2.389965932574995e-13
	-1.012339574028158e-05,4.904728961329622e-15
14		1.380384264602885e+00,0.000000000000000e+00
	-1.012339574028158e-01,5.018974775165065e-11
	1.000000000000000e+00,0.000000000000000e+00
	0.000000000000000e+00,0.000000000000000e+00
	1.012339574028154e-05,-5.018974775165051e-15
	5.774651245257818e-24,2.445635390593729e-13
	1.051124790506230e-13,2.473265762220101e-16
	-1.012339584539402e-05,-2.397918908604299e-13
	-1.012339574028158e-05,5.018974775165065e-15
	-5.774651245257818e-24,-2.445635390593729e-13
	-1.012339574028158e-05,5.018974775165065e-15
15		1.412537544622754e+00,0.000000000000000e+00
	-1.012339574028158e-01,5.135881715860283e-11
	1.000000000000000e+00,0.000000000000000e+00
	0.000000000000000e+00,0.000000000000000e+00
	1.012339574028154e-05,-5.135881715860267e-15
	6.046802173947135e-24,2.502601556868368e-13
	1.051124790506230e-13,2.530875522528226e-16
	-1.012339584539402e-05,-2.453773615232294e-13
	-1.012339574028158e-05,5.135881715860283e-15
	-6.046802173947135e-24,-2.502601556868368e-13
	-1.012339574028158e-05,5.135881715860283e-15
16		1.445439770745927e+00,0.000000000000000e+00
	-1.012339574028158e-01,5.255511769022683e-11
	1.000000000000000e+00,0.000000000000000e+00
	0.000000000000000e+00,0.000000000000000e+00
	1.012339574028154e-05,-5.255511769022683e-15
	6.331779180756285e-24,2.560894635614306e-13
	1.051124790506230e-13,2.589827186538093e-16
	-1.012339584539402e-05,-2.510929345110617e-13
	-1.012339574028158e-05,5.255511769022683e-15
	-6.331779180756285e-24,-2.560894635614306e-13
	-1.012339574028158e-05,5.255511769022683e-15
17		1.479108388168207e+00,0.000000000000000e+00
	-1.012339574028158e-01,5.377928364089940e-11
	1.000000000000000e+00,0.000000000000000e+00
	0.000000000000000e+00,0.000000000000000e+00
	1.012339574028154e-05,-5.377928364089921e-15
	6.630186740124243e-24,2.620545534593494e-13
	1.051124790506230e-13,2.650152011202801e-16
	-1.012339584539402e-05,-2.569416402963797e-13
	-1.012339574028158e-05,5.377928364089941e-15
	-6.630186740124243e-24,-2.620545534593494e-13
	-1.012339574028158e-05,5.377928364089941e-15
18		1.513561248436208e+00,0.000000000000000e+00
	-1.012339574028158e-01,5.503196407961135e-11
	1.000000000000000e+00,0.000000000000000e+00
	0.000000000000000e+00,0.000000000000000e+00
	1.012339574028154e-05,-5.503196407961103e-15
	6.942657814492625e-24,2.681585881502145e-13
	1.051124790506230e-13,2.711881981541813e-16
	-1.012339584539402e-05,-2.629265799404076e-13
	-1.012339574028158e-05,5.503196407961135e-15
	-6.942657814492625e-24,-2.681585881502145e-13
	-1.012339574028158e-05,5.503196407961135e-15
19		1.548816618912481e+00,0.000000000000000e+00
	-1.012339574028158e-01,5.631382319411249e-11
	1.000000000000000e+00,0.000000000000000e+00
	0.000000000000000e+00,0.000000000000000e+00
	1.012339574028154e-05,-5.631382319411208e-15
	7.269855196903895e-24,2.744048040740154e-13
	1.051124790506230e-13,2.775049827604367e-16
	-1.012339584539402e-05,-2.690509267373646e-13
	-1.012339574028158e-05,5.631382319411249e-15
	-7.269855196903895e-24,-2.744048040740154e-13
	-1.012339574028158e-05,5.631382319411249e-15
20		1.584893192461113e+00,0.000000000000000e+00
	-1.012339574028158e-01,5.762554064307269e-11
	1.000000000000000e+00,0.000000000000000e+00
	0.000000000000000e+00,0.000000000000000e+00
	1.012339574028154e-05,-5.762554064307259e-15
	7.612472916874258e-24,2.807965130571132e-13
	1.051124790506230e-13,2.839689041817595e-16
	-1.012339584539402e-05,-2.753179278969877e-13
	-1.012339574028158e-05,5.762554064307269e-15
	-7.612472916874258e-24,-2.807965130571132e-13
	-1.012339574028158e-05,5.762554064307269e-15
21		1.621810097358929e+00,0.000000000000000e+00
	-1.012339574028158e-01,5.896781191644607e-11
	1.000000000000000e+00,0.000000000000000e+00
	0.000000000000000e+00,0.000000000000000e+00
	1.012339574028154e-05,-5.896781191644579e-15
	7.971237712523339e-24,2.873371040682153e-13
	1.051124790506230e-13,2.905833896748144e-16
	-1.012339584539402e-05,-2.817309062662455e-13
	-1.012339574028158e-05,5.896781191644607e-15
	-7.971237712523339e-24,-2.873371040682153e-13
	-1.012339574028158e-05,5.896781191644607e-15
22		1.659586907437560e+00,0.000000000000000e+00
	-1.012339574028158e-01,6.034134870422881e-11
	1.000000000000000e+00,0.000000000000000e+00
	0.000000000000000e+00,0.000000000000000e+00
	1.012339574028154e-05,-6.034134870422863e-15
	8.346910572083137e-24,2.940300450152504e-13
	1.051124790506230e-13,2.973519463274498e-16
	-1.012339584539402e-05,-2.882932620911550e-13
	-1.012339574028158e-05,6.034134870422881e-15
	-8.346910572083137e-24,-2.940300450152505e-13
	-1.012339574028158e-05,6.034134870422881e-15
23		1.698243652461743e+00,0.000000000000000e+00
	-1.012339574028158e-01,6.174687927380670e-11
	1.000000000000000e+00,0.000000000000000e+00
	0.000000000000000e+00,0.000000000000000e+00
	1.012339574028154e-05,-6.174687927380648e-15
	8.740288348056119e-24,3.008788845841005e-13
	1.051124790506230e-13,3.042781629179356e-16
	-1.012339584539402e-05,-2.950084748196378e-13
	-1.012339574028158e-05,6.174687927380671e-15
	-8.740288348056119e-24,-3.008788845841005e-13
	-1.012339574028158e-05,6.174687927380671e-15
24		1.737800828749374e+00,0.000000000000000e+00
	-1.012339574028158e-01,6.318514885609213e-11
	1.000000000000000e+00,0.000000000000000e+00
	0.000000000000000e+00,0.000000000000000e+00
	1.012339574028154e-05,-6.318514885609200e-15
	9.152205447446197e-24,3.078872541201598e-13
	1.051124790506230e-13,3.113657118180240e-16
	-1.012339584539402e-05,-3.018801049463686e-13
	-1.012339574028158e-05,6.318514885609214e-15
	-9.152205447446197e-24,-3.078872541201598e-13
	-1.012339574028158e-05,6.318514885609214e-15
25		1.778279410038922e+00,0.000000000000000e+00
	-1.012339574028158e-01,6.465692004065539e-11
	1.000000000000000e+00,0.000000000000000e+00
	0.000000000000000e+00,0.000000000000000e+00
	1.012339574028154e-05,-6.465692004065514e-15
	9.583535601647869e-24,3.150588695537232e-13
	1.051124790506230e-13,3.186183509398583e-16
	-1.012339584539402e-05,-3.089117959005976e-13
	-1.012339574028158e-05,6.465692004065539e-15
	-9.583535601647869e-24,-3.150588695537233e-13
	-1.012339574028158e-05,6.465692004065539e-15
26		1.819700858609982e+00,0.000000000000000e+00
	-1.012339574028158e-01,6.616297318005970e-11
	1.000000000000000e+00,0.000000000000000e+00
	0.000000000000000e+00,0.000000000000000e+00
	1.012339574028154e-05,-6.616297318005967e-15
	1.003519371974763e-23,3.223975333702212e-13
	1.051124790506230e-13,3.260399257287995e-16
	-1.012339584539402e-05,-3.161072759779441e-13
	-1.012339574028158e-05,6.616297318005971e-15
	-1.003519371974763e-23,-3.223975333702212e-13
	-1.012339574028158e-05,6.616297318005971e-15
27		1.862087136662866e+00,0.000000000000000e+00
	-1.012339574028158e-01,6.770410680361457e-11
	1.000000000000000e+00,0.000000000000000e+00
	0.000000000000000e+00,0.000000000000000e+00
	1.012339574028154e-05,-6.770410680361451e-15
	1.050813782916885e-23,3.299071366263480e-13
	1.051124790506230e-13,3.336343712019943e-16
	-1.012339584539402e-05,-3.234703603171885e-13
	-1.012339574028158e-05,6.770410680361458e-15
	-1.050813782916885e-23,-3.299071366263480e-13
	-1.012339574028158e-05,6.770410680361458e-15
28		1.905460717963246e+00,0.000000000000000e+00
	-1.012339574028158e-01,6.928113804076651e-11
	1.000000000000000e+00,0.000000000000000e+00
	0.000000000000000e+00,0.000000000000000e+00
	1.012339574028154e-05,-6.928113804076613e-15
	1.100337110777630e-23,3.375916610131512e-13
	1.051124790506230e-13,3.414057140349566e-16
	-1.012339584539402e-05,-3.310049529231095e-13
	-1.012339574028158e-05,6.928113804076652e-15
	-1.100337110777630e-23,-3.375916610131512e-13
	-1.012339574028158e-05,6.928113804076652e-15
29		1.949844599758044e+00,0.000000000000000e+00
	-1.012339574028158e-01,7.089490305435196e-11
	1.000000000000000e+00,0.000000000000000e+00
	0.000000000000000e+00,0.000000000000000e+00
	1.012339574028154e-05,-7.089490305435181e-15
	1.152194401175102e-23,3.454551809671775e-13
	1.051124790506230e-13,3.493580746966413e-16
	-1.012339584539402e-05,-3.387150487364390e-13
	-1.012339574028158e-05,7.089490305435197e-15
	-1.152194401175102e-23,-3.454551809671775e-13
	-1.012339574028158e-05,7.089490305435197e-15
30		1.995262314968878e+00,0.000000000000000e+00
	-1.012339574028158e-01,7.254625748394179e-11
	1.000000000000000e+00,0.000000000000000e+00
	0.000000000000000e+00,0.000000000000000e+00
	1.012339574028154e-05,-7.254625748394147e-15
	1.206495650374860e-23,3.535018658307924e-13
	1.051124790506230e-13,3.574956696337689e-16
	-1.012339584539402e-05,-3.466047357520320e-13
	-1.012339574028158e-05,7.254625748394178e-15
	-1.206495650374860e-23,-3.535018658307925e-13
	-1.012339574028158e-05,7.254625748394178e-15
31		2.041737944669527e+00,0.000000000000000e+00
	-1.012339574028158e-01,7.423607689951283e-11
	1.000000000000000e+00,0.000000000000000e+00
	0.000000000000000e+00,0.000000000000000e+00
	1.012339574028154e-05,-7.423607689951249e-15
	1.263356038606752e-23,3.617359820628212e-13
	1.051124790506230e-13,3.658228135069241e-16
	-1.012339584539402e-05,-3.546781971863769e-13
	-1.012339574028158e-05,7.423607689951283e-15
	-1.263356038606752e-23,-3.617359820628213e-13
	-1.012339574028158e-05,7.423607689951283e-15
32		2.089296130854037e+00,0.000000000000000e+00
	-1.012339574028158e-01,7.596525726568667e-11
	1.000000000000000e+00,0.000000000000000e+00
	0.000000000000000e+00,0.000000000000000e+00
	1.012339574028154e-05,-7.596525726568612e-15
	1.322896174377625e-23,3.701618955006816e-13
	1.051124790506230e-13,3.743439214780758e-16
	-1.012339584539402e-05,-3.629397136955910e-13
	-1.012339574028158e-05,7.596525726568668e-15
	-1.322896174377625e-23,-3.701618955006816e-13
	-1.012339574028158e-05,7.596525726568668e-15
33		2.137962089502230e+00,0.000000000000000e+00
	-1.012339574028158e-01,7.773471541678179e-11
	1.000000000000000e+00,0.000000000000000e+00
	0.000000000000000e+00,0.000000000000000e+00
	1.012339574028154e-05,-7.773471541678183e-15
	1.385242350298132e-23,3.787840736752082e-13
	1.051124790506230e-13,3.830635115514619e-16
	-1.012339584539402e-05,-3.713936656450814e-13
	-1.012339574028158e-05,7.773471541678179e-15
	-1.385242350298132e-23,-3.787840736752082e-13
	-1.012339574028158e-05,7.773471541678179e-15
34		2.187761623949550e+00,0.000000000000000e+00
	-1.012339574028158e-01,7.954538954293150e-11
	1.000000000000000e+00,0.000000000000000e+00
	0.000000000000000e+00,0.000000000000000e+00
	1.012339574028154e-05,-7.954538954293125e-15
	1.450526810966298e-23,3.876070881793974e-13
	1.051124790506230e-13,3.919862069690002e-16
	-1.012339584539402e-05,-3.800445354320733e-13
	-1.012339574028158e-05,7.954538954293150e-15
	-1.450526810966298e-23,-3.876070881793974e-13
	-1.012339574028158e-05,7.954538954293150e-15
35		2.238721138568337e+00,0.000000000000000e+00
	-1.012339574028158e-01,8.139823968752459e-11
	1.000000000000000e+00,0.000000000000000e+00
	0.000000000000000e+00,0.000000000000000e+00
	1.012339574028154e-05,-8.139823968752435e-15
	1.518888033476042e-23,3.966356170923257e-13
	1.051124790506230e-13,4.011167386621182e-16
	-1.012339584539402e-05,-3.888969098622354e-13
	-1.012339574028158e-05,8.139823968752460e-15
	-1.518888033476042e-23,-3.966356170923257e-13
	-1.012339574028158e-05,8.139823968752460e-15
36		2.290867652767770e+00,0.000000000000000e+00
	-1.012339574028158e-01,8.329424825623306e-11
	1.000000000000000e+00,0.000000000000000e+00
	0.000000000000000e+00,0.000000000000000e+00
	1.012339574028154e-05,-8.329424825623316e-15
	1.590471021145653e-23,4.058744474595294e-13
	1.051124790506230e-13,4.104599477594733e-16
	-1.012339584539402e-05,-3.979554825816655e-13
	-1.012339574028158e-05,8.329424825623307e-15
	-1.590471021145653e-23,-4.058744474595294e-13
	-1.012339574028158e-05,8.329424825623307e-15
37		2.344228815319919e+00,0.000000000000000e+00
	-1.012339574028158e-01,8.523442053789673e-11
	1.000000000000000e+00,0.000000000000000e+00
	0.000000000000000e+00,0.000000000000000e+00
	1.012339574028154e-05,-8.523442053789633e-15
	1.665427611089279e-23,4.153284778311595e-13
	1.051124790506230e-13,4.200207881541198e-16
	-1.012339584539402e-05,-4.072250565655240e-13
	-1.012339574028158e-05,8.523442053789674e-15
	-1.665427611089279e-23,-4.153284778311596e-13
	-1.012339574028158e-05,8.523442053789674e-15
38		2.398832919019488e+00,0.000000000000000e+00
	-1.012339574028158e-01,8.721978523754051e-11
	1.000000000000000e+00,0.000000000000000e+00
	0.000000000000000e+00,0.000000000000000e+00
	1.012339574028154e-05,-8.721978523754009e-15
	1.743916796283796e-23,4.250027208592581e-13
	1.051124790506230e-13,4.298043291304039e-16
	-1.012339584539402e-05,-4.167105466646345e-13
	-1.012339574028158e-05,8.721978523754052e-15
	-1.743916796283796e-23,-4.250027208592581e-13
	-1.012339574028158e-05,8.721978523754052e-15
39		2.454708915685027e+00,0.000000000000000e+00
	-1.012339574028158e-01,8.925139502180757e-11
	1.000000000000000e+00,0.000000000000000e+00
	0.000000000000000e+00,0.000000000000000e+00
	1.012339574028154e-05,-8.925139502180715e-15
	1.826105062814227e-23,4.349023059555322e-13
	1.051124790506230e-13,4.398157580510885e-16
	-1.012339584539402e-05,-4.264169822114026e-13
	-1.012339574028158e-05,8.925139502180758e-15
	-1.826105062814227e-23,-4.349023059555323e-13
	-1.012339574028158e-05,8.925139502180758e-15
40		2.511886431509577e+00,0.000000000000000e+00
	-1.012339574028158e-01,9.133032707709706e-11
	1.000000000000000e+00,0.000000000000000e+00
	0.000000000000000e+00,0.000000000000000e+00
	1.012339574028154e-05,-9.133032707709703e-15
	1.912166743013058e-23,4.450324820110366e-13
	1.051124790506230e-13,4.500603831083952e-16
	-1.012339584539402e-05,-4.363495096864353e-13
	-1.012339574028158e-05,9.133032707709706e-15
	-1.912166743013058e-23,-4.450324820110366e-13
	-1.012339574028158e-05,9.133032707709706e-15
41		2.570395782768860e+00,0.000000000000000e+00
	-1.012339574028158e-01,9.345768368070261e-11
	1.000000000000000e+00,0.000000000000000e+00
	0.000000000000000e+00,0.000000000000000e+00
	1.012339574028154e-05,-9.345768368070240e-15
	2.002284385242480e-23,4.553986201792045e-13
	1.051124790506230e-13,4.605436361379030e-16
	-1.012339584539402e-05,-4.465133954472722e-13
	-1.012339574028158e-05,9.345768368070261e-15
	-2.002284385242480e-23,-4.553986201792045e-13
	-1.012339574028158e-05,9.345768368070261e-15
42		2.630267991895378e+00,0.000000000000000e+00
	-1.012339574028158e-01,9.563459278525439e-11
	1.000000000000000e+00,0.000000000000000e+00
	0.000000000000000e+00,0.000000000000000e+00
	1.012339574028154e-05,-9.563459278525406e-15
	2.096649141103946e-23,4.660062167237048e-13
	1.051124790506230e-13,4.712710754994681e-16
	-1.012339584539402e-05,-4.569140285206788e-13
	-1.012339574028158e-05,9.563459278525440e-15
	-2.096649141103946e-23,-4.660062167237049e-13
	-1.012339574028158e-05,9.563459278525440e-15
43		2.691534803926912e+00,0.000000000000000e+00
	-1.012339574028158e-01,9.786220861677440e-11
	1.000000000000000e+00,0.000000000000000e+00
	0.000000000000000e+00,0.000000000000000e+00
	1.012339574028154e-05,-9.786220861677387e-15
	2.195461170896341e-23,4.768608959326335e-13
	1.051124790506230e-13,4.822483890230957e-16
	-1.012339584539402e-05,-4.675569234599792e-13
	-1.012339574028158e-05,9.786220861677441e-15
	-2.195461170896341e-23,-4.768608959326335e-13
	-1.012339574028158e-05,9.786220861677441e-15
44		2.754228703338163e+00,0.000000000000000e+00
	-1.012339574028158e-01,1.001417122866625e-10
	1.000000000000000e+00,0.000000000000000e+00
	0.000000000000000e+00,0.000000000000000e+00
	1.012339574028154e-05,-1.001417122866615e-14
	2.298930068182813e-23,4.879684131005857e-13
	1.051124790506230e-13,4.934813970261246e-16
	-1.012339584539402e-05,-4.784477232689457e-13
	-1.012339574028158e-05,1.001417122866625e-14
	-2.298930068182813e-23,-4.879684131005858e-13
	-1.012339574028158e-05,1.001417122866625e-14
45		2.818382931264450e+00,0.000000000000000e+00
	-1.012339574028158e-01,1.024743124179372e-10
	1.000000000000000e+00,0.000000000000000e+00
	0.000000000000000e+00,0.000000000000000e+00
	1.012339574028154e-05,-1.024743124179364e-14
	2.407275304366825e-23,4.993346575801896e-13
	1.051124790506230e-13,5.049760553976353e-16
	-1.012339584539402e-05,-4.895922023937936e-13
	-1.012339574028158e-05,1.024743124179372e-14
	-2.407275304366825e-23,-4.993346575801896e-13
	-1.012339574028158e-05,1.024743124179372e-14
46		2.884031503126602e+00,0.000000000000000e+00
	-1.012339574028158e-01,1.048612457860638e-10
	1.000000000000000e+00,0.000000000000000e+00
	0.000000000000000e+00,0.000000000000000e+00
	1.012339574028154e-05,-1.048612457860633e-14
	2.520726694220419e-23,5.109656559047178e-13
	1.051124790506230e-13,5.167384587581350e-16
	-1.012339584539402e-05,-5.009962697848696e-13
	-1.012339574028158e-05,1.048612457860638e-14
	-2.520726694220419e-23,-5.109656559047178e-13
	-1.012339574028158e-05,1.048612457860638e-14
47		2.951209226666381e+00,0.000000000000000e+00
	-1.012339574028158e-01,1.073037779747088e-10
	1.000000000000000e+00,0.000000000000000e+00
	0.000000000000000e+00,0.000000000000000e+00
	1.012339574028154e-05,-1.073037779747082e-14
	2.639524883352172e-23,5.228675749834369e-13
	1.051124790506230e-13,5.287748436891159e-16
	-1.012339584539402e-05,-5.126659720296552e-13
	-1.012339574028158e-05,1.073037779747088e-14
	-2.639524883352172e-23,-5.228675749834370e-13
	-1.012339574028158e-05,1.073037779747088e-14
48		3.019951720402012e+00,0.000000000000000e+00
	-1.012339574028158e-01,1.098032040467695e-10
	1.000000000000000e+00,0.000000000000000e+00
	0.000000000000000e+00,0.000000000000000e+00
	1.012339574028154e-05,-1.098032040467692e-14
	2.763921858648779e-23,5.350467253713828e-13
	1.051124790506230e-13,5.410915920412730e-16
	-1.012339584539402e-05,-5.246074965587472e-13
	-1.012339574028158e-05,1.098032040467695e-14
	-2.763921858648779e-23,-5.350467253713828e-13
	-1.012339574028158e-05,1.098032040467695e-14
49		3.090295432513586e+00,0.000000000000000e+00
	-1.012339574028158e-01,1.123608492310329e-10
	1.000000000000000e+00,0.000000000000000e+00
	0.000000000000000e+00,0.000000000000000e+00
	1.012339574028154e-05,-1.123608492310326e-14
	2.894181482773040e-23,5.475095646153011e-13
	1.051124790506230e-13,5.536952343180483e-16
	-1.012339584539402e-05,-5.368271749265159e-13
	-1.012339574028158e-05,1.123608492310329e-14
	-2.894181482773040e-23,-5.475095646153012e-13
	-1.012339574028158e-05,1.123608492310329e-14
50		3.162277660168374e+00,0.000000000000000e+00
	-1.012339574028158e-01,1.149780696248304e-10
	1.000000000000000e+00,0.000000000000000e+00
	0.000000000000000e+00,0.000000000000000e+00
	1.012339574028154e-05,-1.149780696248296e-14
	3.030580053851933e-23,5.602627006775244e-13
	1.051124790506230e-13,5.665924531369251e-16
	-1.012339584539402e-05,-5.493314861681783e-13
	-1.012339574028158e-05,1.149780696248304e-14
	-3.030580053851933e-23,-5.602627006775245e-13
	-1.012339574028158e-05,1.149780696248304e-14
51		3.235936569296277e+00,0.000000000000000e+00
	-1.012339574028158e-01,1.176562529130575e-10
	1.000000000000000e+00,0.000000000000000e+00
	0.000000000000000e+00,0.000000000000000e+00
	1.012339574028154e-05,-1.176562529130572e-14
	3.173406891541991e-23,5.733128954396004e-13
	1.051124790506230e-13,5.797900867742285e-16
	-1.012339584539402e-05,-5.621270602350689e-13
	-1.012339574028158e-05,1.176562529130575e-14
	-3.173406891541991e-23,-5.733128954396005e-13
	-1.012339574028158e-05,1.176562529130575e-14
52		3.311311214825905e+00,0.000000000000000e+00
	-1.012339574028158e-01,1.203968191039438e-10
	1.000000000000000e+00,0.000000000000000e+00
	0.000000000000000e+00,0.000000000000000e+00
	1.012339574028154e-05,-1.203968191039440e-14
	3.322964950715083e-23,5.866670682875318e-13
	1.051124790506230e-13,5.932951327897960e-16
	-1.012339584539402e-05,-5.752206815099272e-13
	-1.012339574028158e-05,1.203968191039438e-14
	-3.322964950715083e-23,-5.866670682875319e-13
	-1.012339574028158e-05,1.203968191039438e-14
53		3.388441561392020e+00,0.000000000000000e+00
	-1.012339574028158e-01,1.232012212819593e-10
	1.000000000000000e+00,0.000000000000000e+00
	0.000000000000000e+00,0.000000000000000e+00
	1.012339574028154e-05,-1.232012212819589e-14
	3.479571464066314e-23,6.003322997805260e-13
	1.051124790506230e-13,6.071147517379809e-16
	-1.012339584539402e-05,-5.886192924040681e-13
	-1.012339574028158e-05,1.232012212819593e-14
	-3.479571464066314e-23,-6.003322997805261e-13
	-1.012339574028158e-05,1.232012212819593e-14
54		3.467368504525310e+00,0.000000000000000e+00
	-1.012339574028158e-01,1.260709463782595e-10
	1.000000000000000e+00,0.000000000000000e+00
	0.000000000000000e+00,0.000000000000000e+00
	1.012339574028154e-05,-1.260709463782594e-14
	3.643558615007101e-23,6.143158354052010e-13
	1.051124790506230e-13,6.212562709638279e-16
	-1.012339584539402e-05,-6.023299970383389e-13
	-1.012339574028158e-05,1.260709463782595e-14
	-3.643558615007101e-23,-6.143158354052010e-13
	-1.012339574028158e-05,1.260709463782595e-14
55		3.548133892335748e+00,0.000000000000000e+00
	-1.012339574028158e-01,1.290075159590757e-10
	1.000000000000000e+00,0.000000000000000e+00
	0.000000000000000e+00,0.000000000000000e+00
	1.012339574028154e-05,-1.290075159590747e-14
	3.815274242270732e-23,6.286250894172394e-13
	1.051124790506230e-13,6.357271884878028e-16
	-1.012339584539402e-05,-6.163600650098197e-13
	-1.012339574028158e-05,1.290075159590757e-14
	-3.815274242270732e-23,-6.286250894172395e-13
	-1.012339574028158e-05,1.290075159590757e-14
56		3.630780547701007e+00,0.000000000000000e+00
	-1.012339574028158e-01,1.320124870324697e-10
	1.000000000000000e+00,0.000000000000000e+00
	0.000000000000000e+00,0.000000000000000e+00
	1.012339574028154e-05,-1.320124870324692e-14
	3.995082577724949e-23,6.432676487725235e-13
	1.051124790506230e-13,6.505351769819544e-16
	-1.012339584539402e-05,-6.307169352462586e-13
	-1.012339574028158e-05,1.320124870324697e-14
	-3.995082577724949e-23,-6.432676487725236e-13
	-1.012339574028158e-05,1.320124870324697e-14
57		3.715352290971718e+00,0.000000000000000e+00
	-1.012339574028158e-01,1.350874528738801e-10
	1.000000000000000e+00,0.000000000000000e+00
	0.000000000000000e+00,0.000000000000000e+00
	1.012339574028154e-05,-1.350874528738801e-14
	4.183365018956569e-23,6.582512771498407e-13
	1.051124790506230e-13,6.656880878377610e-16
	-1.012339584539402e-05,-6.454082199502904e-13
	-1.012339574028158e-05,1.350874528738801e-14
	-4.183365018956569e-23,-6.582512771498408e-13
	-1.012339574028158e-05,1.350874528738801e-14
58		3.801893963205605e+00,0.000000000000000e+00