Title: * GA CMOS Amp | W=5e-05 L=6.328569963505034e-07 Vbias=1.3049911723878804
Date: Mon Sep  8 18:43:54 2025
Plotname: AC Analysis
Flags: complex forward log
No. Variables: 11
No. Points:          901
Offset:    0.0000000000000000e+00
Command: Linear Technology Corporation LTspice
Variables:
	0	frequency	frequency
	1	V(out)	voltage
	2	V(g)	voltage
	3	V(vdd)	voltage
	4	Id(M1)	device_current
	5	Ig(M1)	device_current
	6	Ib(M1)	device_current
	7	Is(M1)	device_current
	8	I(Rload)	device_current
	9	I(Vg)	device_current
	10	I(Vdd)	device_current
Values:
0		1.000000000000000e+00,0.000000000000000e+00
	-3.996618977388592e-02,2.666128634310745e-11
	1.000000000000000e+00,0.000000000000000e+00
	0.000000000000000e+00,0.000000000000000e+00
	3.996618977388585e-06,-2.666128634310779e-15
	4.785464757964270e-24,3.678926131985131e-13
	4.611355785069660e-14,1.250435911949408e-16
	-3.996619023502142e-06,-3.653515281553972e-13
	-3.996618977388592e-06,2.666128634310745e-15
	-4.785464757964270e-24,-3.678926131985131e-13
	-3.996618977388592e-06,2.666128634310745e-15
1		1.023292992280754e+00,0.000000000000000e+00
	-3.996618977388592e-02,2.728230748009243e-11
	1.000000000000000e+00,0.000000000000000e+00
	0.000000000000000e+00,0.000000000000000e+00
	3.996618977388585e-06,-2.728230748009252e-15
	5.010996763755876e-24,3.764619329978925e-13
	4.611355785069660e-14,1.279562305994007e-16
	-3.996619023502142e-06,-3.738616584804827e-13
	-3.996618977388592e-06,2.728230748009244e-15
	-5.010996763755876e-24,-3.764619329978925e-13
	-3.996618977388592e-06,2.728230748009244e-15
2		1.047128548050899e+00,0.000000000000000e+00
	-3.996618977388592e-02,2.791779405762738e-11
	1.000000000000000e+00,0.000000000000000e+00
	0.000000000000000e+00,0.000000000000000e+00
	3.996618977388585e-06,-2.791779405762731e-15
	5.247157765519445e-24,3.852308578972101e-13
	4.611355785069660e-14,1.309367140910061e-16
	-3.996619023502142e-06,-3.825700152055384e-13
	-3.996618977388592e-06,2.791779405762738e-15
	-5.247157765519445e-24,-3.852308578972101e-13
	-3.996618977388592e-06,2.791779405762738e-15
3		1.071519305237606e+00,0.000000000000000e+00
	-3.996618977388592e-02,2.856808301910738e-11
	1.000000000000000e+00,0.000000000000000e+00
	0.000000000000000e+00,0.000000000000000e+00
	3.996618977388585e-06,-2.856808301910744e-15
	5.494448692402379e-24,3.942040372965181e-13
	4.611355785069660e-14,1.339866219616133e-16
	-3.996619023502142e-06,-3.914812156165690e-13
	-3.996618977388592e-06,2.856808301910738e-15
	-5.494448692402379e-24,-3.942040372965181e-13
	-3.996618977388592e-06,2.856808301910738e-15
4		1.096478196143185e+00,0.000000000000000e+00
	-3.996618977388592e-02,2.923351915634739e-11
	1.000000000000000e+00,0.000000000000000e+00
	0.000000000000000e+00,0.000000000000000e+00
	3.996618977388585e-06,-2.923351915634751e-15
	5.753394081615464e-24,4.033862288943080e-13
	4.611355785069660e-14,1.371075713127166e-16
	-3.996619023502142e-06,-4.005999845499859e-13
	-3.996618977388592e-06,2.923351915634739e-15
	-5.753394081615464e-24,-4.033862288943080e-13
	-3.996618977388592e-06,2.923351915634739e-15
5		1.122018454301963e+00,0.000000000000000e+00
	-3.996618977388592e-02,2.991445529239546e-11
	1.000000000000000e+00,0.000000000000000e+00
	0.000000000000000e+00,0.000000000000000e+00
	3.996618977388585e-06,-2.991445529239593e-15
	6.024543191046641e-24,4.127823012101057e-13
	4.611355785069660e-14,1.403012169129468e-16
	-3.996619023502142e-06,-4.099311568977790e-13
	-3.996618977388592e-06,2.991445529239547e-15
	-6.024543191046641e-24,-4.127823012101057e-13
	-3.996618977388592e-06,2.991445529239547e-15
6		1.148153621496882e+00,0.000000000000000e+00
	-3.996618977388592e-02,3.061125246860420e-11
	1.000000000000000e+00,0.000000000000000e+00
	0.000000000000000e+00,0.000000000000000e+00
	3.996618977388585e-06,-3.061125246860409e-15
	6.308471164310602e-24,4.223972361658246e-13
	4.611355785069660e-14,1.435692520754104e-16
	-3.996619023502142e-06,-4.194796801710396e-13
	-3.996618977388592e-06,3.061125246860420e-15
	-6.308471164310602e-24,-4.223972361658246e-13
	-3.996618977388592e-06,3.061125246860420e-15
7		1.174897554939529e+00,0.000000000000000e+00
	-3.996618977388592e-02,3.132428013605961e-11
	1.000000000000000e+00,0.000000000000000e+00
	0.000000000000000e+00,0.000000000000000e+00
	3.996618977388585e-06,-3.132428013605970e-15
	6.605780250705527e-24,4.322361317272470e-13
	4.611355785069660e-14,1.469134095558051e-16
	-3.996619023502142e-06,-4.292506171231968e-13
	-3.996618977388592e-06,3.132428013605961e-15
	-6.605780250705527e-24,-4.322361317272470e-13
	-3.996618977388592e-06,3.132428013605961e-15
8		1.202264434617413e+00,0.000000000000000e+00
	-3.996618977388592e-02,3.205391635146902e-11
	1.000000000000000e+00,0.000000000000000e+00
	0.000000000000000e+00,0.000000000000000e+00
	3.996618977388585e-06,-3.205391635146975e-15
	6.917101082664585e-24,4.423042046070328e-13
	4.611355785069660e-14,1.503354624705270e-16
	-3.996619023502142e-06,-4.392491484343564e-13
	-3.996618977388592e-06,3.205391635146902e-15
	-6.917101082664585e-24,-4.423042046070328e-13
	-3.996618977388592e-06,3.205391635146902e-15
9		1.230268770812381e+00,0.000000000000000e+00
	-3.996618977388592e-02,3.280054797761174e-11
	1.000000000000000e+00,0.000000000000000e+00
	0.000000000000000e+00,0.000000000000000e+00
	3.996618977388585e-06,-3.280054797761190e-15
	7.243094013411874e-24,4.526067930306895e-13
	4.611355785069660e-14,1.538372252374478e-16
	-3.996619023502142e-06,-4.494805754581657e-13
	-3.996618977388592e-06,3.280054797761174e-15
	-7.243094013411874e-24,-4.526067930306895e-13
	-3.996618977388592e-06,3.280054797761174e-15
10		1.258925411794167e+00,0.000000000000000e+00
	-3.996618977388592e-02,3.356457088845875e-11
	1.000000000000000e+00,0.000000000000000e+00
	0.000000000000000e+00,0.000000000000000e+00
	3.996618977388585e-06,-3.356457088845931e-15
	7.584450517660137e-24,4.631493595669703e-13
	4.611355785069660e-14,1.574205545373149e-16
	-3.996619023502142e-06,-4.599503230326616e-13
	-3.996618977388592e-06,3.356457088845875e-15
	-7.584450517660137e-24,-4.631493595669703e-13
	-3.996618977388592e-06,3.356457088845875e-15
11		1.288249551693134e+00,0.000000000000000e+00
	-3.996618977388592e-02,3.434639017907044e-11
	1.000000000000000e+00,0.000000000000000e+00
	0.000000000000000e+00,0.000000000000000e+00
	3.996618977388585e-06,-3.434639017907088e-15
	7.941894658321355e-24,4.739374940241999e-13
	4.611355785069660e-14,1.610873502989823e-16
	-3.996619023502142e-06,-4.706639423565918e-13
	-3.996618977388592e-06,3.434639017907045e-15
	-7.941894658321355e-24,-4.739374940241999e-13
	-3.996618977388592e-06,3.434639017907045e-15
12		1.318256738556407e+00,0.000000000000000e+00
	-3.996618977388592e-02,3.514642038038330e-11
	1.000000000000000e+00,0.000000000000000e+00
	0.000000000000000e+00,0.000000000000000e+00
	3.996618977388585e-06,-3.514642038038355e-15
	8.316184622341234e-24,4.849769164140655e-13
	4.611355785069660e-14,1.648395567059715e-16
	-3.996619023502142e-06,-4.816271139327332e-13
	-3.996618977388592e-06,3.514642038038330e-15
	-8.316184622341234e-24,-4.849769164140655e-13
	-3.996618977388592e-06,3.514642038038330e-15
13		1.348962882591653e+00,0.000000000000000e+00
	-3.996618977388592e-02,3.596508567899971e-11
	1.000000000000000e+00,0.000000000000000e+00
	0.000000000000000e+00,0.000000000000000e+00
	3.996618977388585e-06,-3.596508567899984e-15
	8.708114328915396e-24,4.962734799844424e-13
	4.611355785069660e-14,1.686791632279734e-16
	-3.996619023502142e-06,-4.928456505797704e-13
	-3.996618977388592e-06,3.596508567899971e-15
	-8.708114328915396e-24,-4.962734799844424e-13
	-3.996618977388592e-06,3.596508567899971e-15
14		1.380384264602885e+00,0.000000000000000e+00
	-3.996618977388592e-02,3.680282014209732e-11
	1.000000000000000e+00,0.000000000000000e+00
	0.000000000000000e+00,0.000000000000000e+00
	3.996618977388585e-06,-3.680282014209672e-15
	9.118515113498415e-24,5.078331743228630e-13
	4.611355785069660e-14,1.726082056748679e-16
	-3.996619023502142e-06,-5.043255005143282e-13
	-3.996618977388592e-06,3.680282014209732e-15
	-9.118515113498415e-24,-5.078331743228630e-13
	-3.996618977388592e-06,3.680282014209732e-15
15		1.412537544622754e+00,0.000000000000000e+00
	-3.996618977388592e-02,3.766006794757717e-11
	1.000000000000000e+00,0.000000000000000e+00
	0.000000000000000e+00,0.000000000000000e+00
	3.996618977388585e-06,-3.766006794757715e-15
	9.548257491177777e-24,5.196621285322763e-13
	4.611355785069660e-14,1.766287672772483e-16
	-3.996619023502142e-06,-5.160727505047959e-13
	-3.996618977388592e-06,3.766006794757718e-15
	-9.548257491177777e-24,-5.196621285322763e-13
	-3.996618977388592e-06,3.766006794757718e-15
16		1.445439770745927e+00,0.000000000000000e+00
	-3.996618977388592e-02,3.853728361957275e-11
	1.000000000000000e+00,0.000000000000000e+00
	0.000000000000000e+00,0.000000000000000e+00
	3.996618977388585e-06,-3.853728361957266e-15
	9.998253003153104e-24,5.317666144807788e-13
	4.611355785069660e-14,1.807429797898168e-16
	-3.996619023502142e-06,-5.280936290986114e-13
	-3.996618977388592e-06,3.853728361957275e-15
	-9.998253003153104e-24,-5.317666144807788e-13
	-3.996618977388592e-06,3.853728361957275e-15
17		1.479108388168207e+00,0.000000000000000e+00
	-3.996618977388592e-02,3.943493226944469e-11
	1.000000000000000e+00,0.000000000000000e+00
	0.000000000000000e+00,0.000000000000000e+00
	3.996618977388585e-06,-3.943493226944455e-15
	1.046945615023726e-23,5.441530501270422e-13
	4.611355785069660e-14,1.849530246231038e-16
	-3.996619023502142e-06,-5.403945099247209e-13
	-3.996618977388592e-06,3.943493226944469e-15
	-1.046945615023726e-23,-5.441530501270422e-13
	-3.996618977388592e-06,3.943493226944469e-15
18		1.513561248436208e+00,0.000000000000000e+00
	-3.996618977388592e-02,4.035348984238892e-11
	1.000000000000000e+00,0.000000000000000e+00
	0.000000000000000e+00,0.000000000000000e+00
	3.996618977388585e-06,-4.035348984238962e-15
	1.096286641748050e-23,5.568280029232004e-13
	4.611355785069660e-14,1.892611339978548e-16
	-3.996619023502142e-06,-5.529819150729593e-13
	-3.996618977388592e-06,4.035348984238893e-15
	-1.096286641748050e-23,-5.568280029232004e-13
	-3.996618977388592e-06,4.035348984238893e-15
19		1.548816618912481e+00,0.000000000000000e+00
	-3.996618977388592e-02,4.129344336978918e-11
	1.000000000000000e+00,0.000000000000000e+00
	0.000000000000000e+00,0.000000000000000e+00
	3.996618977388585e-06,-4.129344336978933e-15
	1.147953039421232e-23,5.697981932969982e-13
	4.611355785069660e-14,1.936695921311242e-16
	-3.996619023502142e-06,-5.658625185521504e-13
	-3.996618977388592e-06,4.129344336978918e-15
	-1.147953039421232e-23,-5.697981932969982e-13
	-3.996618977388592e-06,4.129344336978918e-15
20		1.584893192461113e+00,0.000000000000000e+00
	-3.996618977388592e-02,4.225529122744744e-11
	1.000000000000000e+00,0.000000000000000e+00
	0.000000000000000e+00,0.000000000000000e+00
	3.996618977388585e-06,-4.225529122744827e-15
	1.202054399399772e-23,5.830704982150527e-13
	4.611355785069660e-14,1.981807364458450e-16
	-3.996619023502142e-06,-5.790431498287537e-13
	-3.996618977388592e-06,4.225529122744744e-15
	-1.202054399399772e-23,-5.830704982150527e-13
	-3.996618977388592e-06,4.225529122744744e-15
21		1.621810097358929e+00,0.000000000000000e+00
	-3.996618977388592e-02,4.323954339982939e-11
	1.000000000000000e+00,0.000000000000000e+00
	0.000000000000000e+00,0.000000000000000e+00
	3.996618977388585e-06,-4.323954339982953e-15
	1.258705477921679e-23,5.966519548291114e-13
	4.611355785069660e-14,2.027969588098832e-16
	-3.996619023502142e-06,-5.925307974479383e-13
	-3.996618977388592e-06,4.323954339982939e-15
	-1.258705477921679e-23,-5.966519548291114e-13
	-3.996618977388592e-06,4.323954339982939e-15
22		1.659586907437560e+00,0.000000000000000e+00
	-3.996618977388592e-02,4.424672175046495e-11
	1.000000000000000e+00,0.000000000000000e+00
	0.000000000000000e+00,0.000000000000000e+00
	3.996618977388585e-06,-4.424672175046505e-15
	1.318026439519841e-23,6.105497642072427e-13
	4.611355785069660e-14,2.075207068060408e-16
	-3.996619023502142e-06,-6.063326127390023e-13
	-3.996618977388592e-06,4.424672175046495e-15
	-1.318026439519841e-23,-6.105497642072427e-13
	-3.996618977388592e-06,4.424672175046495e-15
23		1.698243652461743e+00,0.000000000000000e+00
	-3.996618977388592e-02,4.527736029864720e-11
	1.000000000000000e+00,0.000000000000000e+00
	0.000000000000000e+00,0.000000000000000e+00
	3.996618977388585e-06,-4.527736029864770e-15
	1.380143111907108e-23,6.247712951519383e-13
	4.611355785069660e-14,2.123544850278069e-16
	-3.996619023502142e-06,-6.204559136071013e-13
	-3.996618977388592e-06,4.527736029864720e-15
	-1.380143111907108e-23,-6.247712951519383e-13
	-3.996618977388592e-06,4.527736029864720e-15
24		1.737800828749374e+00,0.000000000000000e+00
	-3.996618977388592e-02,4.633200550257651e-11
	1.000000000000000e+00,0.000000000000000e+00
	0.000000000000000e+00,0.000000000000000e+00
	3.996618977388585e-06,-4.633200550257649e-15
	1.445187252873740e-23,6.393240881071491e-13
	4.611355785069660e-14,2.173008564083301e-16
	-3.996619023502142e-06,-6.349081884132998e-13
	-3.996618977388592e-06,4.633200550257652e-15
	-1.445187252873740e-23,-6.393240881071491e-13
	-3.996618977388592e-06,4.633200550257652e-15
25		1.778279410038922e+00,0.000000000000000e+00
	-3.996618977388592e-02,4.741121654909989e-11
	1.000000000000000e+00,0.000000000000000e+00
	0.000000000000000e+00,0.000000000000000e+00
	3.996618977388585e-06,-4.741121654910008e-15
	1.513296829763347e-23,6.542158591563291e-13
	4.611355785069660e-14,2.223624435793288e-16
	-3.996619023502142e-06,-6.496970999449984e-13
	-3.996618977388592e-06,4.741121654909989e-15
	-1.513296829763347e-23,-6.542158591563291e-13
	-3.996618977388592e-06,4.741121654909989e-15
26		1.819700858609982e+00,0.000000000000000e+00
	-3.996618977388592e-02,4.851556565019923e-11
	1.000000000000000e+00,0.000000000000000e+00
	0.000000000000000e+00,0.000000000000000e+00
	3.996618977388585e-06,-4.851556565019916e-15
	1.584616312120123e-23,6.694545041136043e-13
	4.611355785069660e-14,2.275419302610011e-16
	-3.996619023502142e-06,-6.648304894788454e-13
	-3.996618977388592e-06,4.851556565019923e-15
	-1.584616312120123e-23,-6.694545041136043e-13
	-3.996618977388592e-06,4.851556565019923e-15
27		1.862087136662866e+00,0.000000000000000e+00
	-3.996618977388592e-02,4.964563834638574e-11
	1.000000000000000e+00,0.000000000000000e+00
	0.000000000000000e+00,0.000000000000000e+00
	3.996618977388585e-06,-4.964563834638570e-15
	1.659296978128115e-23,6.850481027102385e-13
	4.611355785069660e-14,2.328420626862659e-16
	-3.996619023502142e-06,-6.803163809382862e-13
	-3.996618977388592e-06,4.964563834638574e-15
	-1.659296978128115e-23,-6.850481027102385e-13
	-3.996618977388592e-06,4.964563834638574e-15
28		1.905460717963246e+00,0.000000000000000e+00
	-3.996618977388592e-02,5.080203381716121e-11
	1.000000000000000e+00,0.000000000000000e+00
	0.000000000000000e+00,0.000000000000000e+00
	3.996618977388585e-06,-5.080203381716120e-15
	1.737497235492538e-23,7.010049228786134e-13
	4.611355785069660e-14,2.382656510549932e-16
	-3.996619023502142e-06,-6.961629851479523e-13
	-3.996618977388592e-06,5.080203381716121e-15
	-1.737497235492538e-23,-7.010049228786134e-13
	-3.996618977388592e-06,5.080203381716121e-15
29		1.949844599758044e+00,0.000000000000000e+00
	-3.996618977388592e-02,5.198536519871096e-11
	1.000000000000000e+00,0.000000000000000e+00
	0.000000000000000e+00,0.000000000000000e+00
	3.996618977388585e-06,-5.198536519871079e-15
	1.819382957443754e-23,7.173334251359957e-13
	4.611355785069660e-14,2.438155710257969e-16
	-3.996619023502142e-06,-7.123787041871504e-13
	-3.996618977388592e-06,5.198536519871096e-15
	-1.819382957443754e-23,-7.173334251359957e-13
	-3.996618977388592e-06,5.198536519871096e-15
30		1.995262314968878e+00,0.000000000000000e+00
	-3.996618977388592e-02,5.319625990899670e-11
	1.000000000000000e+00,0.000000000000000e+00
	0.000000000000000e+00,0.000000000000000e+00
	3.996618977388585e-06,-5.319625990899676e-15
	1.905127834576629e-23,7.340422670704152e-13
	4.611355785069660e-14,2.494947652396346e-16
	-3.996619023502142e-06,-7.289721358447551e-13
	-3.996618977388592e-06,5.319625990899671e-15
	-1.905127834576629e-23,-7.340422670704152e-13
	-3.996618977388592e-06,5.319625990899671e-15
31		2.041737944669527e+00,0.000000000000000e+00
	-3.996618977388592e-02,5.443535998042195e-11
	1.000000000000000e+00,0.000000000000000e+00
	0.000000000000000e+00,0.000000000000000e+00
	3.996618977388585e-06,-5.443535998042256e-15
	1.994913743271579e-23,7.511403079310336e-13
	4.611355785069660e-14,2.553062448804139e-16
	-3.996619023502142e-06,-7.459520781778718e-13
	-3.996618977388592e-06,5.443535998042196e-15
	-1.994913743271579e-23,-7.511403079310336e-13
	-3.996618977388592e-06,5.443535998042196e-15
32		2.089296130854037e+00,0.000000000000000e+00
	-3.996618977388592e-02,5.570332240024600e-11
	1.000000000000000e+00,0.000000000000000e+00
	0.000000000000000e+00,0.000000000000000e+00
	3.996618977388585e-06,-5.570332240024561e-15
	2.088931131478754e-23,7.686366133254344e-13
	4.611355785069660e-14,2.612530912716472e-16
	-3.996619023502142e-06,-7.633275341766815e-13
	-3.996618977388592e-06,5.570332240024600e-15
	-2.088931131478754e-23,-7.686366133254344e-13
	-3.996618977388592e-06,5.570332240024600e-15
33		2.137962089502230e+00,0.000000000000000e+00
	-3.996618977388592e-02,5.700081945892729e-11
	1.000000000000000e+00,0.000000000000000e+00
	0.000000000000000e+00,0.000000000000000e+00
	3.996618977388585e-06,-5.700081945892764e-15
	2.187379422683670e-23,7.865404600263288e-13
	4.611355785069660e-14,2.673384575099617e-16
	-3.996619023502142e-06,-7.811077165379460e-13
	-3.996618977388592e-06,5.700081945892728e-15
	-2.187379422683670e-23,-7.865404600263288e-13
	-3.996618977388592e-06,5.700081945892728e-15
34		2.187761623949550e+00,0.000000000000000e+00
	-3.996618977388592e-02,5.832853910658073e-11
	1.000000000000000e+00,0.000000000000000e+00
	0.000000000000000e+00,0.000000000000000e+00
	3.996618977388585e-06,-5.832853910658072e-15
	2.290467438911166e-23,8.048613408902228e-13
	4.611355785069660e-14,2.735655701370301e-16
	-3.996619023502142e-06,-7.993020525497018e-13
	-3.996618977388592e-06,5.832853910658073e-15
	-2.290467438911166e-23,-8.048613408902228e-13
	-3.996618977388592e-06,5.832853910658073e-15
35		2.238721138568337e+00,0.000000000000000e+00
	-3.996618977388592e-02,5.968718531773799e-11
	1.000000000000000e+00,0.000000000000000e+00
	0.000000000000000e+00,0.000000000000000e+00
	3.996618977388585e-06,-5.968718531773751e-15
	2.398413843664912e-23,8.236089698906562e-13
	4.611355785069660e-14,2.799377308504772e-16
	-3.996619023502142e-06,-8.179201890897329e-13
	-3.996618977388592e-06,5.968718531773799e-15
	-2.398413843664912e-23,-8.236089698906562e-13
	-3.996618977388592e-06,5.968718531773799e-15
36		2.290867652767770e+00,0.000000000000000e+00
	-3.996618977388592e-02,6.107747846460398e-11
	1.000000000000000e+00,0.000000000000000e+00
	0.000000000000000e+00,0.000000000000000e+00
	3.996618977388585e-06,-6.107747846460493e-15
	2.511447605742016e-23,8.427932872686790e-13
	4.611355785069660e-14,2.864583182544195e-16
	-3.996619023502142e-06,-8.369719977404729e-13
	-3.996618977388592e-06,6.107747846460399e-15
	-2.511447605742016e-23,-8.427932872686790e-13
	-3.996618977388592e-06,6.107747846460399e-15
37		2.344228815319919e+00,0.000000000000000e+00
	-3.996618977388592e-02,6.250015569900793e-11
	1.000000000000000e+00,0.000000000000000e+00
	0.000000000000000e+00,0.000000000000000e+00
	3.996618977388585e-06,-6.250015569900863e-15
	2.629808484906545e-23,8.624244648032997e-13
	4.611355785069660e-14,2.931307896502924e-16
	-3.996619023502142e-06,-8.564675800230491e-13
	-3.996618977388592e-06,6.250015569900793e-15
	-2.629808484906545e-23,-8.624244648032997e-13
	-3.996618977388592e-06,6.250015569900793e-15
38		2.398832919019488e+00,0.000000000000000e+00
	-3.996618977388592e-02,6.395597134325086e-11
	1.000000000000000e+00,0.000000000000000e+00
	0.000000000000000e+00,0.000000000000000e+00
	3.996618977388585e-06,-6.395597134325147e-15
	2.753747540452126e-23,8.825129112046965e-13
	4.611355785069660e-14,2.999586828708957e-16
	-3.996619023502142e-06,-8.764172727532422e-13
	-3.996618977388592e-06,6.395597134325086e-15
	-2.753747540452126e-23,-8.825129112046965e-13
	-3.996618977388592e-06,6.395597134325086e-15
39		2.454708915685027e+00,0.000000000000000e+00
	-3.996618977388592e-02,6.544569729005734e-11
	1.000000000000000e+00,0.000000000000000e+00
	0.000000000000000e+00,0.000000000000000e+00
	3.996618977388585e-06,-6.544569729005719e-15
	2.883527663732371e-23,9.030692776330533e-13
	4.611355785069660e-14,3.069456181554838e-16
	-3.996619023502142e-06,-8.968316535222031e-13
	-3.996618977388592e-06,6.544569729005735e-15
	-2.883527663732371e-23,-9.030692776330533e-13
	-3.996618977388592e-06,6.544569729005735e-15
40		2.511886431509577e+00,0.000000000000000e+00
	-3.996618977388592e-02,6.697012341184320e-11
	1.000000000000000e+00,0.000000000000000e+00
	0.000000000000000e+00,0.000000000000000e+00
	3.996618977388585e-06,-6.697012341184406e-15
	3.019424135788679e-23,9.241044633459461e-13
	4.611355785069660e-14,3.140953000699926e-16
	-3.996619023502142e-06,-9.177215463048317e-13
	-3.996618977388592e-06,6.697012341184320e-15
	-3.019424135788679e-23,-9.241044633459461e-13
	-3.996618977388592e-06,6.697012341184320e-15
41		2.570395782768860e+00,0.000000000000000e+00
	-3.996618977388592e-02,6.853005797951641e-11
	1.000000000000000e+00,0.000000000000000e+00
	0.000000000000000e+00,0.000000000000000e+00
	3.996618977388585e-06,-6.853005797951687e-15
	3.161725211258241e-23,9.456296214772735e-13
	4.611355785069660e-14,3.214115194700278e-16
	-3.996619023502142e-06,-9.390980271987919e-13
	-3.996618977388592e-06,6.853005797951642e-15
	-3.161725211258241e-23,-9.456296214772735e-13
	-3.996618977388592e-06,6.853005797951642e-15
42		2.630267991895378e+00,0.000000000000000e+00
	-3.996618977388592e-02,7.012632809103291e-11
	1.000000000000000e+00,0.000000000000000e+00
	0.000000000000000e+00,0.000000000000000e+00
	3.996618977388585e-06,-7.012632809103372e-15
	3.310732729800765e-23,9.676561649507961e-13
	4.611355785069660e-14,3.288981555117662e-16
	-3.996619023502142e-06,-9.609724302972045e-13
	-3.996618977388592e-06,7.012632809103292e-15
	-3.310732729800765e-23,-9.676561649507961e-13
	-3.996618977388592e-06,7.012632809103292e-15
43		2.691534803926912e+00,0.000000000000000e+00
	-3.996618977388592e-02,7.175978010993499e-11
	1.000000000000000e+00,0.000000000000000e+00
	0.000000000000000e+00,0.000000000000000e+00
	3.996618977388585e-06,-7.175978010993445e-15
	3.466762756340867e-23,9.901957725314194e-13
	4.611355785069660e-14,3.365591777090527e-16
	-3.996619023502142e-06,-9.833563536981350e-13
	-3.996618977388592e-06,7.175978010993498e-15
	-3.466762756340867e-23,-9.901957725314194e-13
	-3.996618977388592e-06,7.175978010993498e-15
44		2.754228703338163e+00,0.000000000000000e+00
	-3.996618977388592e-02,7.343128011410431e-11
	1.000000000000000e+00,0.000000000000000e+00
	0.000000000000000e+00,0.000000000000000e+00
	3.996618977388585e-06,-7.343128011410427e-15
	3.630146251484146e-23,1.013260395017429e-12
	4.611355785069660e-14,3.443986480378032e-16
	-3.996619023502142e-06,-1.006261665654056e-12
	-3.996618977388592e-06,7.343128011410431e-15
	-3.630146251484146e-23,-1.013260395017429e-12
	-3.996618977388592e-06,7.343128011410431e-15
45		2.818382931264450e+00,0.000000000000000e+00
	-3.996618977388592e-02,7.514171435496803e-11
	1.000000000000000e+00,0.000000000000000e+00
	0.000000000000000e+00,0.000000000000000e+00
	3.996618977388585e-06,-7.514171435496908e-15
	3.801229773529010e-23,1.036862261576964e-12
	4.611355785069660e-14,3.524207230878660e-16
	-3.996619023502142e-06,-1.029700510864555e-12
	-3.996618977388592e-06,7.514171435496804e-15
	-3.801229773529010e-23,-1.036862261576964e-12
	-3.996618977388592e-06,7.514171435496804e-15
46		2.884031503126602e+00,0.000000000000000e+00
	-3.996618977388592e-02,7.689198972740093e-11
	1.000000000000000e+00,0.000000000000000e+00
	0.000000000000000e+00,0.000000000000000e+00
	3.996618977388585e-06,-7.689198972740112e-15
	3.980376213563280e-23,1.061013886232081e-12
	4.611355785069660e-14,3.606296562701155e-16
	-3.996619023502142e-06,-1.053685316915611e-12
	-3.996618977388592e-06,7.689198972740093e-15
	-3.980376213563280e-23,-1.061013886232081e-12
	-3.996618977388592e-06,7.689198972740093e-15
47		2.951209226666381e+00,0.000000000000000e+00
	-3.996618977388592e-02,7.868303425057312e-11
	1.000000000000000e+00,0.000000000000000e+00
	0.000000000000000e+00,0.000000000000000e+00
	3.996618977388585e-06,-7.868303425057218e-15
	4.167965565204856e-23,1.085728074493858e-12
	4.611355785069660e-14,3.690298000699945e-16
	-3.996619023502142e-06,-1.078228800868871e-12
	-3.996618977388592e-06,7.868303425057313e-15
	-4.167965565204856e-23,-1.085728074493858e-12
	-3.996618977388592e-06,7.868303425057313e-15
48		3.019951720402012e+00,0.000000000000000e+00
	-3.996618977388592e-02,8.051579755999802e-11
	1.000000000000000e+00,0.000000000000000e+00
	0.000000000000000e+00,0.000000000000000e+00
	3.996618977388585e-06,-8.051579755999889e-15
	4.364395730619107e-23,1.111017930152042e-12
	4.611355785069660e-14,3.776256083545724e-16
	-3.996619023502142e-06,-1.103343976004396e-12
	-3.996618977388592e-06,8.051579755999802e-15
	-4.364395730619107e-23,-1.111017930152042e-12
	-3.996618977388592e-06,8.051579755999802e-15
49		3.090295432513586e+00,0.000000000000000e+00
	-3.996618977388592e-02,8.239125141104182e-11
	1.000000000000000e+00,0.000000000000000e+00
	0.000000000000000e+00,0.000000000000000e+00
	3.996618977388585e-06,-8.239125141104141e-15
	4.570083364522730e-23,1.136896862222852e-12
	4.611355785069660e-14,3.864216387348369e-16
	-3.996619023502142e-06,-1.129044158720483e-12
	-3.996618977388592e-06,8.239125141104182e-15
	-4.570083364522730e-23,-1.136896862222852e-12
	-3.996618977388592e-06,8.239125141104182e-15
50		3.162277660168374e+00,0.000000000000000e+00
	-3.996618977388592e-02,8.431039019416087e-11
	1.000000000000000e+00,0.000000000000000e+00
	0.000000000000000e+00,0.000000000000000e+00
	3.996618977388585e-06,-8.431039019416067e-15
	4.785464757964255e-23,1.163378592058623e-12
	4.611355785069660e-14,3.954225549828138e-16
	-3.996619023502142e-06,-1.155342975594190e-12
	-3.996618977388592e-06,8.431039019416088e-15
	-4.785464757964255e-23,-1.163378592058623e-12
	-3.996618977388592e-06,8.431039019416088e-15
51		3.235936569296277e+00,0.000000000000000e+00
	-3.996618977388592e-02,8.627423146214083e-11
	1.000000000000000e+00,0.000000000000000e+00
	0.000000000000000e+00,0.000000000000000e+00
	3.996618977388585e-06,-8.627423146214094e-15
	5.010996763755860e-23,1.190477160623039e-12
	4.611355785069660e-14,4.046331295038198e-16
	-3.996619023502142e-06,-1.182254370606329e-12
	-3.996618977388592e-06,8.627423146214083e-15
	-5.010996763755860e-23,-1.190477160623039e-12
	-3.996618977388592e-06,8.627423146214083e-15
52		3.311311214825905e+00,0.000000000000000e+00
	-3.996618977388592e-02,8.828381646961647e-11
	1.000000000000000e+00,0.000000000000000e+00
	0.000000000000000e+00,0.000000000000000e+00
	3.996618977388585e-06,-8.828381646961622e-15
	5.247157765519429e-23,1.218206935935845e-12
	4.611355785069660e-14,4.140582458657644e-16
	-3.996619023502142e-06,-1.209792612534749e-12
	-3.996618977388592e-06,8.828381646961648e-15
	-5.247157765519429e-23,-1.218206935935845e-12
	-3.996618977388592e-06,8.828381646961648e-15
53		3.388441561392020e+00,0.000000000000000e+00
	-3.996618977388592e-02,9.034021072515877e-11
	1.000000000000000e+00,0.000000000000000e+00
	0.000000000000000e+00,0.000000000000000e+00
	3.996618977388585e-06,-9.034021072515871e-15
	5.494448692402363e-23,1.246582620690960e-12
	4.611355785069660e-14,4.237029013903504e-16
	-3.996619023502142e-06,-1.237972302519835e-12
	-3.996618977388592e-06,9.034021072515877e-15
	-5.494448692402363e-23,-1.246582620690960e-12
	-3.996618977388592e-06,9.034021072515877e-15
54		3.467368504525310e+00,0.000000000000000e+00
	-3.996618977388592e-02,9.244450455622157e-11
	1.000000000000000e+00,0.000000000000000e+00
	0.000000000000000e+00,0.000000000000000e+00
	3.996618977388585e-06,-9.244450455622141e-15
	5.753394081615448e-23,1.275619260052037e-12
	4.611355785069660e-14,4.335722098020307e-16
	-3.996619023502142e-06,-1.266808381806217e-12
	-3.996618977388592e-06,9.244450455622157e-15
	-5.753394081615448e-23,-1.275619260052037e-12
	-3.996618977388592e-06,9.244450455622157e-15
55		3.548133892335748e+00,0.000000000000000e+00
	-3.996618977388592e-02,9.459781368724779e-11
	1.000000000000000e+00,0.000000000000000e+00
	0.000000000000000e+00,0.000000000000000e+00
	3.996618977388585e-06,-9.459781368724770e-15
	6.024543191046623e-23,1.305332249629610e-12
	4.611355785069660e-14,4.436714039379535e-16
	-3.996619023502142e-06,-1.296316139664823e-12
	-3.996618977388592e-06,9.459781368724779e-15
	-6.024543191046623e-23,-1.305332249629610e-12
	-3.996618977388592e-06,9.459781368724779e-15
56		3.630780547701007e+00,0.000000000000000e+00
	-3.996618977388592e-02,9.680127983124106e-11
	1.000000000000000e+00,0.000000000000000e+00
	0.000000000000000e+00,0.000000000000000e+00
	3.996618977388585e-06,-9.680127983124175e-15
	6.308471164310583e-23,1.335737343644052e-12
	4.611355785069660e-14,4.540058385254600e-16
	-3.996619023502142e-06,-1.326511221499453e-12
	-3.996618977388592e-06,9.680127983124107e-15
	-6.308471164310583e-23,-1.335737343644052e-12
	-3.996618977388592e-06,9.680127983124107e-15
57		3.715352290971718e+00,0.000000000000000e+00
	-3.996618977388592e-02,9.905607129511726e-11
	1.000000000000000e+00,0.000000000000000e+00
	0.000000000000000e+00,0.000000000000000e+00
	3.996618977388585e-06,-9.905607129511694e-15
	6.605780250705506e-23,1.366850663278668e-12
	4.611355785069660e-14,4.645809930172375e-16
	-3.996619023502142e-06,-1.357409637142173e-12
	-3.996618977388592e-06,9.905607129511728e-15
	-6.605780250705506e-23,-1.366850663278668e-12
	-3.996618977388592e-06,9.905607129511728e-15
58		3.801893963205605e+00,0.000000000000000e+00
	-3.996618977388592e-02,1.013633835991563e-10