Title: * GA CMOS Amp | W=6.4162334048817386e-06 L=6.930204542436001e-07 Vbias=1.0954858375560952
Date: Mon Sep  8 18:43:58 2025
Plotname: AC Analysis
Flags: complex forward log
No. Variables: 11
No. Points:          901
Offset:    0.0000000000000000e+00
Command: Linear Technology Corporation LTspice
Variables:
	0	frequency	frequency
	1	V(out)	voltage
	2	V(g)	voltage
	3	V(vdd)	voltage
	4	Id(M1)	device_current
	5	Ig(M1)	device_current
	6	Ib(M1)	device_current
	7	Is(M1)	device_current
	8	I(Rload)	device_current
	9	I(Vg)	device_current
	10	I(Vdd)	device_current
Values:
0		1.000000000000000e+00,0.000000000000000e+00
	-2.473150785257137e+00,2.242385560201935e-10
	1.000000000000000e+00,0.000000000000000e+00
	0.000000000000000e+00,0.000000000000000e+00
	2.473150785257137e-04,-2.242385560201935e-14
	1.808007826647864e-24,6.015299629535454e-14
	2.473150807411062e-12,-1.208516797157381e-15
	-2.473150809988645e-04,-3.652062389617781e-14
	-2.473150785257137e-04,2.242385560201935e-14
	-1.808007826647864e-24,-6.015299629535454e-14
	-2.473150785257137e-04,2.242385560201935e-14
1		1.023292992280754e+00,0.000000000000000e+00
	-2.473150785257137e+00,2.294617429746192e-10
	1.000000000000000e+00,0.000000000000000e+00
	0.000000000000000e+00,0.000000000000000e+00
	2.473150785257137e-04,-2.294617429746193e-14
	1.893216610382439e-24,6.155413957372646e-14
	2.473150807411062e-12,-1.236666769584739e-15
	-2.473150809988645e-04,-3.737129850667980e-14
	-2.473150785257137e-04,2.294617429746193e-14
	-1.893216610382439e-24,-6.155413957372646e-14
	-2.473150785257137e-04,2.294617429746193e-14
2		1.047128548050899e+00,0.000000000000000e+00
	-2.473150785257137e+00,2.348065935824555e-10
	1.000000000000000e+00,0.000000000000000e+00
	0.000000000000000e+00,0.000000000000000e+00
	2.473150785257137e-04,-2.348065935824554e-14
	1.982441160375610e-24,6.298791967166573e-14
	2.473150807411062e-12,-1.265472439102537e-15
	-2.473150809988645e-04,-3.824178787431765e-14
	-2.473150785257137e-04,2.348065935824555e-14
	-1.982441160375610e-24,-6.298791967166573e-14
	-2.473150785257137e-04,2.348065935824555e-14
3		1.071519305237606e+00,0.000000000000000e+00
	-2.473150785257137e+00,2.402759417542417e-10
	1.000000000000000e+00,0.000000000000000e+00
	0.000000000000000e+00,0.000000000000000e+00
	2.473150785257137e-04,-2.402759417542417e-14
	2.075870733860452e-24,6.445509679835859e-14
	2.473150807411062e-12,-1.294949078858053e-15
	-2.473150809988645e-04,-3.913255354407636e-14
	-2.473150785257137e-04,2.402759417542417e-14
	-2.075870733860452e-24,-6.445509679835860e-14
	-2.473150785257137e-04,2.402759417542417e-14
4		1.096478196143185e+00,0.000000000000000e+00
	-2.473150785257137e+00,2.458726874107742e-10
	1.000000000000000e+00,0.000000000000000e+00
	0.000000000000000e+00,0.000000000000000e+00
	2.473150785257137e-04,-2.458726874107741e-14
	2.173703507488649e-24,6.595644887053800e-14
	2.473150807411062e-12,-1.325112317755866e-15
	-2.473150809988645e-04,-4.004406781170472e-14
	-2.473150785257137e-04,2.458726874107742e-14
	-2.173703507488649e-24,-6.595644887053801e-14
	-2.473150785257137e-04,2.458726874107742e-14
5		1.122018454301963e+00,0.000000000000000e+00
	-2.473150785257137e+00,2.515997980206816e-10
	1.000000000000000e+00,0.000000000000000e+00
	0.000000000000000e+00,0.000000000000000e+00
	2.473150785257137e-04,-2.515997980206816e-14
	2.276146997689738e-24,6.749277192494540e-14
	2.473150807411062e-12,-1.355978148744484e-15
	-2.473150809988645e-04,-4.097681397413276e-14
	-2.473150785257137e-04,2.515997980206816e-14
	-2.276146997689738e-24,-6.749277192494542e-14
	-2.473150785257137e-04,2.515997980206816e-14
6		1.148153621496882e+00,0.000000000000000e+00
	-2.473150785257137e+00,2.574603101738167e-10
	1.000000000000000e+00,0.000000000000000e+00
	0.000000000000000e+00,0.000000000000000e+00
	2.473150785257137e-04,-2.574603101738167e-14
	2.383418500841269e-24,6.906488054039986e-14
	2.473150807411062e-12,-1.387562937296070e-15
	-2.473150809988645e-04,-4.193128658572213e-14
	-2.473150785257137e-04,2.574603101738167e-14
	-2.383418500841269e-24,-6.906488054039988e-14
	-2.473150785257137e-04,2.574603101738167e-14
7		1.174897554939529e+00,0.000000000000000e+00
	-2.473150785257137e+00,2.634573311912959e-10
	1.000000000000000e+00,0.000000000000000e+00
	0.000000000000000e+00,0.000000000000000e+00
	2.473150785257137e-04,-2.634573311912959e-14
	2.495745554183569e-24,7.067360826969859e-14
	2.473150807411062e-12,-1.419883430083558e-15
	-2.473150809988645e-04,-4.290799172048544e-14
	-2.473150785257137e-04,2.634573311912959e-14
	-2.495745554183569e-24,-7.067360826969860e-14
	-2.473150785257137e-04,2.634573311912959e-14
8		1.202264434617413e+00,0.000000000000000e+00
	-2.473150785257137e+00,2.695940407730428e-10
	1.000000000000000e+00,0.000000000000000e+00
	0.000000000000000e+00,0.000000000000000e+00
	2.473150785257137e-04,-2.695940407730429e-14
	2.613366418456728e-24,7.231980808157773e-14
	2.473150807411062e-12,-1.452956763860070e-15
	-2.473150809988645e-04,-4.390744724041337e-14
	-2.473150785257137e-04,2.695940407730429e-14
	-2.613366418456728e-24,-7.231980808157773e-14
	-2.473150785257137e-04,2.695940407730429e-14
9		1.230268770812381e+00,0.000000000000000e+00
	-2.473150785257137e+00,2.758736926837066e-10
	1.000000000000000e+00,0.000000000000000e+00
	0.000000000000000e+00,0.000000000000000e+00
	2.473150785257137e-04,-2.758736926837067e-14
	2.736530583283574e-24,7.400435281296753e-14
	2.473150807411062e-12,-1.486800474544929e-15
	-2.473150809988645e-04,-4.493018307005194e-14
	-2.473150785257137e-04,2.758736926837067e-14
	-2.736530583283574e-24,-7.400435281296755e-14
	-2.473150785257137e-04,2.758736926837067e-14
10		1.258925411794167e+00,0.000000000000000e+00
	-2.473150785257137e+00,2.822996164778515e-10
	1.000000000000000e+00,0.000000000000000e+00
	0.000000000000000e+00,0.000000000000000e+00
	2.473150785257137e-04,-2.822996164778515e-14
	2.865499296370611e-24,7.572813563178220e-14
	2.473150807411062e-12,-1.521432506521520e-15
	-2.473150809988645e-04,-4.597674147747553e-14
	-2.473150785257137e-04,2.822996164778515e-14
	-2.865499296370611e-24,-7.572813563178221e-14
	-2.473150785257137e-04,2.822996164778515e-14
11		1.288249551693134e+00,0.000000000000000e+00
	-2.473150785257137e+00,2.888752192653299e-10
	1.000000000000000e+00,0.000000000000000e+00
	0.000000000000000e+00,0.000000000000000e+00
	2.473150785257137e-04,-2.888752192653299e-14
	3.000546117649432e-24,7.749207051048921e-14
	2.473150807411062e-12,-1.556871222151615e-15
	-2.473150809988645e-04,-4.704767736180461e-14
	-2.473150785257137e-04,2.888752192653299e-14
	-3.000546117649432e-24,-7.749207051048922e-14
	-2.473150785257137e-04,2.888752192653299e-14
12		1.318256738556407e+00,0.000000000000000e+00
	-2.473150785257137e+00,2.956039875177783e-10
	1.000000000000000e+00,0.000000000000000e+00
	0.000000000000000e+00,0.000000000000000e+00
	2.473150785257137e-04,-2.956039875177784e-14
	3.141957499534012e-24,7.929709271070969e-14
	2.473150807411062e-12,-1.593135411511329e-15
	-2.473150809988645e-04,-4.814355854742052e-14
	-2.473150785257137e-04,2.956039875177783e-14
	-3.141957499534012e-24,-7.929709271070970e-14
	-2.473150785257137e-04,2.956039875177783e-14
13		1.348962882591653e+00,0.000000000000000e+00
	-2.473150785257137e+00,3.024894889171901e-10
	1.000000000000000e+00,0.000000000000000e+00
	0.000000000000000e+00,0.000000000000000e+00
	2.473150785257137e-04,-3.024894889171901e-14
	3.290033394524686e-24,8.114415927910650e-14
	2.473150807411062e-12,-1.630244302353859e-15
	-2.473150809988645e-04,-4.926496608503363e-14
	-2.473150785257137e-04,3.024894889171901e-14
	-3.290033394524686e-24,-8.114415927910650e-14
	-2.473150785257137e-04,3.024894889171901e-14
14		1.380384264602885e+00,0.000000000000000e+00
	-2.473150785257137e+00,3.095353742475475e-10
	1.000000000000000e+00,0.000000000000000e+00
	0.000000000000000e+00,0.000000000000000e+00
	2.473150785257137e-04,-3.095353742475475e-14
	3.445087891447607e-24,8.303424955482301e-14
	2.473150807411062e-12,-1.668217570304334e-15
	-2.473150809988645e-04,-5.041249455976393e-14
	-2.473150785257137e-04,3.095353742475475e-14
	-3.445087891447607e-24,-8.303424955482301e-14
	-2.473150785257137e-04,3.095353742475475e-14
15		1.412537544622754e+00,0.000000000000000e+00
	-2.473150785257137e+00,3.167453793305160e-10
	1.000000000000000e+00,0.000000000000000e+00
	0.000000000000000e+00,0.000000000000000e+00
	2.473150785257137e-04,-3.167453793305159e-14
	3.607449881679267e-24,8.496836568874171e-14
	2.473150807411062e-12,-1.707075349292042e-15
	-2.473150809988645e-04,-5.158675240639807e-14
	-2.473150785257137e-04,3.167453793305160e-14
	-3.607449881679267e-24,-8.496836568874172e-14
	-2.473150785257137e-04,3.167453793305160e-14
16		1.445439770745927e+00,0.000000000000000e+00
	-2.473150785257137e+00,3.241233270062261e-10
	1.000000000000000e+00,0.000000000000000e+00
	0.000000000000000e+00,0.000000000000000e+00
	2.473150785257137e-04,-3.241233270062262e-14
	3.777463756769199e-24,8.694753317483785e-14
	2.473150807411062e-12,-1.746838242225768e-15
	-2.473150809988645e-04,-5.278836223198946e-14
	-2.473150785257137e-04,3.241233270062261e-14
	-3.777463756769199e-24,-8.694753317483786e-14
	-2.473150785257137e-04,3.241233270062261e-14
17		1.479108388168207e+00,0.000000000000000e+00
	-2.473150785257137e+00,3.316731291601945e-10
	1.000000000000000e+00,0.000000000000000e+00
	0.000000000000000e+00,0.000000000000000e+00
	2.473150785257137e-04,-3.316731291601946e-14
	3.955490138940627e-24,8.897280139390996e-14
	2.473150807411062e-12,-1.787527331917664e-15
	-2.473150809988645e-04,-5.401796114597284e-14
	-2.473150785257137e-04,3.316731291601945e-14
	-3.955490138940627e-24,-8.897280139390996e-14
	-2.473150785257137e-04,3.316731291601945e-14
18		1.513561248436208e+00,0.000000000000000e+00
	-2.473150785257137e+00,3.393987887974565e-10
	1.000000000000000e+00,0.000000000000000e+00
	0.000000000000000e+00,0.000000000000000e+00
	2.473150785257137e-04,-3.393987887974565e-14
	4.141906646018551e-24,9.104524416997537e-14
	2.473150807411062e-12,-1.829164192261649e-15
	-2.473150809988645e-04,-5.527620109796807e-14
	-2.473150785257137e-04,3.393987887974565e-14
	-4.141906646018551e-24,-9.104524416997539e-14
	-2.473150785257137e-04,3.393987887974565e-14
19		1.548816618912481e+00,0.000000000000000e+00
	-2.473150785257137e+00,3.473044021650129e-10
	1.000000000000000e+00,0.000000000000000e+00
	0.000000000000000e+00,0.000000000000000e+00
	2.473150785257137e-04,-3.473044021650130e-14
	4.337108692407775e-24,9.316596033962599e-14
	2.473150807411062e-12,-1.871770899672240e-15
	-2.473150809988645e-04,-5.656374922345245e-14
	-2.473150785257137e-04,3.473044021650129e-14
	-4.337108692407775e-24,-9.316596033962599e-14
	-2.473150785257137e-04,3.473044021650129e-14
20		1.584893192461113e+00,0.000000000000000e+00
	-2.473150785257137e+00,3.553941609237145e-10
	1.000000000000000e+00,0.000000000000000e+00
	0.000000000000000e+00,0.000000000000000e+00
	2.473150785257137e-04,-3.553941609237146e-14
	4.541510327819890e-24,9.533607433464594e-14
	2.473150807411062e-12,-1.915370044789648e-15
	-2.473150809988645e-04,-5.788128819748484e-14
	-2.473150785257137e-04,3.553941609237146e-14
	-4.541510327819890e-24,-9.533607433464595e-14
	-2.473150785257137e-04,3.553941609237146e-14
21		1.621810097358929e+00,0.000000000000000e+00
	-2.473150785257137e+00,3.636723543707356e-10
	1.000000000000000e+00,0.000000000000000e+00
	0.000000000000000e+00,0.000000000000000e+00
	2.473150785257137e-04,-3.636723543707356e-14
	4.755545115528204e-24,9.755673677820025e-14
	2.473150807411062e-12,-1.959984744457731e-15
	-2.473150809988645e-04,-5.922951659666896e-14
	-2.473150785257137e-04,3.636723543707357e-14
	-4.755545115528204e-24,-9.755673677820025e-14
	-2.473150785257137e-04,3.636723543707357e-14
22		1.659586907437560e+00,0.000000000000000e+00
	-2.473150785257137e+00,3.721433717138169e-10
	1.000000000000000e+00,0.000000000000000e+00
	0.000000000000000e+00,0.000000000000000e+00
	2.473150785257137e-04,-3.721433717138169e-14
	4.979667052013597e-24,9.982912509491042e-14
	2.473150807411062e-12,-2.005638653980766e-15
	-2.473150809988645e-04,-6.060914926954797e-14
	-2.473150785257137e-04,3.721433717138169e-14
	-4.979667052013597e-24,-9.982912509491043e-14
	-2.473150785257137e-04,3.721433717138169e-14
23		1.698243652461743e+00,0.000000000000000e+00
	-2.473150785257137e+00,3.808117043984806e-10
	1.000000000000000e+00,0.000000000000000e+00
	0.000000000000000e+00,0.000000000000000e+00
	2.473150785257137e-04,-3.808117043984807e-14
	5.214351529951901e-24,1.021544441351406e-13
	2.473150807411062e-12,-2.052355979665924e-15
	-2.473150809988645e-04,-6.202091771562662e-14
	-2.473150785257137e-04,3.808117043984806e-14
	-5.214351529951901e-24,-1.021544441351406e-13
	-2.473150785257137e-04,3.808117043984806e-14
24		1.737800828749374e+00,0.000000000000000e+00
	-2.473150785257137e+00,3.896819484894552e-10
	1.000000000000000e+00,0.000000000000000e+00
	0.000000000000000e+00,0.000000000000000e+00
	2.473150785257137e-04,-3.896819484894553e-14
	5.460096346585519e-24,1.045339268138252e-13
	2.473150807411062e-12,-2.100161491657642e-15
	-2.473150809988645e-04,-6.346557047322199e-14
	-2.473150785257137e-04,3.896819484894552e-14
	-5.460096346585519e-24,-1.045339268138252e-13
	-2.473150785257137e-04,3.896819484894552e-14
25		1.778279410038922e+00,0.000000000000000e+00
	-2.473150785257137e+00,3.987588071075694e-10
	1.000000000000000e+00,0.000000000000000e+00
	0.000000000000000e+00,0.000000000000000e+00
	2.473150785257137e-04,-3.987588071075694e-14
	5.717422759618117e-24,1.069688347641765e-13
	2.473150807411062e-12,-2.149080537071168e-15
	-2.473150809988645e-04,-6.494387351634842e-14
	-2.473150785257137e-04,3.987588071075694e-14
	-5.717422759618117e-24,-1.069688347641765e-13
	-2.473150785257137e-04,3.987588071075694e-14
26		1.819700858609982e+00,0.000000000000000e+00
	-2.473150785257137e+00,4.080470929234087e-10
	1.000000000000000e+00,0.000000000000000e+00
	0.000000000000000e+00,0.000000000000000e+00
	2.473150785257137e-04,-4.080470929234087e-14
	5.986876592872085e-24,1.094604590066197e-13
	2.473150807411062e-12,-2.199139053431881e-15
	-2.473150809988645e-04,-6.645661066084699e-14
	-2.473150785257137e-04,4.080470929234088e-14
	-5.986876592872085e-24,-1.094604590066197e-13
	-2.473150785257137e-04,4.080470929234088e-14
27		1.862087136662866e+00,0.000000000000000e+00
	-2.473150785257137e+00,4.175517307090577e-10
	1.000000000000000e+00,0.000000000000000e+00
	0.000000000000000e+00,0.000000000000000e+00
	2.473150785257137e-04,-4.175517307090577e-14
	6.269029394054060e-24,1.120101206333087e-13
	2.473150807411062e-12,-2.250363582427790e-15
	-2.473150809988645e-04,-6.800458397997516e-14
	-2.473150785257137e-04,4.175517307090577e-14
	-6.269029394054060e-24,-1.120101206333087e-13
	-2.473150785257137e-04,4.175517307090577e-14
28		1.905460717963246e+00,0.000000000000000e+00
	-2.473150785257137e+00,4.272777599492793e-10
	1.000000000000000e+00,0.000000000000000e+00
	0.000000000000000e+00,0.000000000000000e+00
	2.473150785257137e-04,-4.272777599492793e-14
	6.564479647084238e-24,1.146191715085867e-13
	2.473150807411062e-12,-2.302781283982149e-15
	-2.473150809988645e-04,-6.958861422967662e-14
	-2.473150785257137e-04,4.272777599492793e-14
	-6.564479647084238e-24,-1.146191715085867e-13
	-2.473150785257137e-04,4.272777599492793e-14
29		1.949844599758044e+00,0.000000000000000e+00
	-2.473150785257137e+00,4.372303375135158e-10
	1.000000000000000e+00,0.000000000000000e+00
	0.000000000000000e+00,0.000000000000000e+00
	2.473150785257137e-04,-4.372303375135158e-14
	6.873854041561000e-24,1.172889949857627e-13
	2.473150807411062e-12,-2.356419950654229e-15
	-2.473150809988645e-04,-7.120954128375686e-14
	-2.473150785257137e-04,4.372303375135158e-14
	-6.873854041561000e-24,-1.172889949857627e-13
	-2.473150785257137e-04,4.372303375135158e-14
30		1.995262314968878e+00,0.000000000000000e+00
	-2.473150785257137e+00,4.474147403901296e-10
	1.000000000000000e+00,0.000000000000000e+00
	0.000000000000000e+00,0.000000000000000e+00
	2.473150785257137e-04,-4.474147403901296e-14
	7.197808802053576e-24,1.200210066405834e-13
	2.473150807411062e-12,-2.411308022375027e-15
	-2.473150809988645e-04,-7.286822457919545e-14
	-2.473150785257137e-04,4.474147403901296e-14
	-7.197808802053576e-24,-1.200210066405834e-13
	-2.473150785257137e-04,4.474147403901296e-14
31		2.041737944669527e+00,0.000000000000000e+00
	-2.473150785257137e+00,4.578363684843325e-10
	1.000000000000000e+00,0.000000000000000e+00
	0.000000000000000e+00,0.000000000000000e+00
	2.473150785257137e-04,-4.578363684843324e-14
	7.537031080042344e-24,1.228166550217908e-13
	2.473150807411062e-12,-2.467474601526700e-15
	-2.473150809988645e-04,-7.456554357183090e-14
	-2.473150785257137e-04,4.578363684843325e-14
	-7.537031080042344e-24,-1.228166550217909e-13
	-2.473150785257137e-04,4.578363684843325e-14
32		2.089296130854037e+00,0.000000000000000e+00
	-2.473150785257137e+00,4.685007474812865e-10
	1.000000000000000e+00,0.000000000000000e+00
	0.000000000000000e+00,0.000000000000000e+00
	2.473150785257137e-04,-4.685007474812866e-14
	7.892240411459243e-24,1.256774224191615e-13
	2.473150807411062e-12,-2.524949468373033e-15
	-2.473150809988645e-04,-7.630239820265979e-14
	-2.473150785257137e-04,4.685007474812866e-14
	-7.892240411459243e-24,-1.256774224191615e-13
	-2.473150785257137e-04,4.685007474812866e-14
33		2.137962089502230e+00,0.000000000000000e+00
	-2.473150785257137e+00,4.794135317758957e-10
	1.000000000000000e+00,0.000000000000000e+00
	0.000000000000000e+00,0.000000000000000e+00
	2.473150785257137e-04,-4.794135317758956e-14
	8.264190242919951e-24,1.286048256494361e-13
	2.473150807411062e-12,-2.583763096849133e-15
	-2.473150809988645e-04,-7.807970937499738e-14
	-2.473150785257137e-04,4.794135317758957e-14
	-8.264190242919951e-24,-1.286048256494361e-13
	-2.473150785257137e-04,4.794135317758957e-14
34		2.187761623949550e+00,0.000000000000000e+00
	-2.473150785257137e+00,4.905805074708407e-10
	1.000000000000000e+00,0.000000000000000e+00
	0.000000000000000e+00,0.000000000000000e+00
	2.473150785257137e-04,-4.905805074708407e-14
	8.653669529885179e-24,1.316004168605561e-13
	2.473150807411062e-12,-2.643946670719327e-15
	-2.473150809988645e-04,-7.989841944275271e-14
	-2.473150785257137e-04,4.905805074708407e-14
	-8.653669529885179e-24,-1.316004168605561e-13
	-2.473150785257137e-04,4.905805074708407e-14
35		2.238721138568337e+00,0.000000000000000e+00
	-2.473150785257137e+00,5.020075954444474e-10
	1.000000000000000e+00,0.000000000000000e+00
	0.000000000000000e+00,0.000000000000000e+00
	2.473150785257137e-04,-5.020075954444474e-14
	9.061504410140977e-24,1.346657843546331e-13
	2.473150807411062e-12,-2.705532100111143e-15
	-2.473150809988645e-04,-8.175949271007720e-14
	-2.473150785257137e-04,5.020075954444474e-14
	-9.061504410140977e-24,-1.346657843546331e-13
	-2.473150785257137e-04,5.020075954444474e-14
36		2.290867652767770e+00,0.000000000000000e+00
	-2.473150785257137e+00,5.137008544900148e-10
	1.000000000000000e+00,0.000000000000000e+00
	0.000000000000000e+00,0.000000000000000e+00
	2.473150785257137e-04,-5.137008544900149e-14
	9.488559956147743e-24,1.378025534300872e-13
	2.473150807411062e-12,-2.768552038434344e-15
	-2.473150809988645e-04,-8.366391594265140e-14
	-2.473150785257137e-04,5.137008544900148e-14
	-9.488559956147743e-24,-1.378025534300873e-13
	-2.473150785257137e-04,5.137008544900148e-14
37		2.344228815319919e+00,0.000000000000000e+00
	-2.473150785257137e+00,5.256664845282674e-10
	1.000000000000000e+00,0.000000000000000e+00
	0.000000000000000e+00,0.000000000000000e+00
	2.473150785257137e-04,-5.256664845282675e-14
	9.935742009974891e-24,1.410123872434025e-13
	2.473150807411062e-12,-2.833039899694481e-15
	-2.473150809988645e-04,-8.561269889088124e-14
	-2.473150785257137e-04,5.256664845282675e-14
	-9.935742009974891e-24,-1.410123872434025e-13
	-2.473150785257137e-04,5.256664845282675e-14
38		2.398832919019488e+00,0.000000000000000e+00
	-2.473150785257137e+00,5.379108298946356e-10
	1.000000000000000e+00,0.000000000000000e+00
	0.000000000000000e+00,0.000000000000000e+00
	2.473150785257137e-04,-5.379108298946356e-14
	1.040399910471334e-23,1.442969876909537e-13
	2.473150807411062e-12,-2.899029876209123e-15
	-2.473150809988645e-04,-8.760687482528106e-14
	-2.473150785257137e-04,5.379108298946357e-14
	-1.040399910471334e-23,-1.442969876909538e-13
	-2.473150785257137e-04,5.379108298946357e-14
39		2.454708915685027e+00,0.000000000000000e+00
	-2.473150785257137e+00,5.504403827031053e-10
	1.000000000000000e+00,0.000000000000000e+00
	0.000000000000000e+00,0.000000000000000e+00
	2.473150785257137e-04,-5.504403827031054e-14
	1.089432447644133e-23,1.476580963113752e-13
	2.473150807411062e-12,-2.966556956737354e-15
	-2.473150809988645e-04,-8.964750108432733e-14
	-2.473150785257137e-04,5.504403827031053e-14
	-1.089432447644133e-23,-1.476580963113752e-13
	-2.473150785257137e-04,5.504403827031053e-14
40		2.511886431509577e+00,0.000000000000000e+00
	-2.473150785257137e+00,5.632617862884241e-10
	1.000000000000000e+00,0.000000000000000e+00
	0.000000000000000e+00,0.000000000000000e+00
	2.473150785257137e-04,-5.632617862884242e-14
	1.140775817101139e-23,1.510974952089469e-13
	2.473150807411062e-12,-3.035656945031022e-15
	-2.473150809988645e-04,-9.173565963507346e-14
	-2.473150785257137e-04,5.632617862884242e-14
	-1.140775817101139e-23,-1.510974952089469e-13
	-2.473150785257137e-04,5.632617862884242e-14
41		2.570395782768860e+00,0.000000000000000e+00
	-2.473150785257137e+00,5.763818387284842e-10
	1.000000000000000e+00,0.000000000000000e+00
	0.000000000000000e+00,0.000000000000000e+00
	2.473150785257137e-04,-5.763818387284841e-14
	1.194538925012694e-23,1.546170079984902e-13
	2.473150807411062e-12,-3.106366478818662e-15
	-2.473150809988645e-04,-9.387245764682309e-14
	-2.473150785257137e-04,5.763818387284843e-14
	-1.194538925012694e-23,-1.546170079984902e-13
	-2.473150785257137e-04,5.763818387284843e-14
42		2.630267991895378e+00,0.000000000000000e+00
	-2.473150785257137e+00,5.898074964487536e-10
	1.000000000000000e+00,0.000000000000000e+00
	0.000000000000000e+00,0.000000000000000e+00
	2.473150785257137e-04,-5.898074964487535e-14
	1.250835810138824e-23,1.582185007722723e-13
	2.473150807411062e-12,-3.178723049230993e-15
	-2.473150809988645e-04,-9.605902807816596e-14
	-2.473150785257137e-04,5.898074964487535e-14
	-1.250835810138824e-23,-1.582185007722723e-13
	-2.473150785257137e-04,5.898074964487535e-14
43		2.691534803926912e+00,0.000000000000000e+00
	-2.473150785257137e+00,6.035458779106653e-10
	1.000000000000000e+00,0.000000000000000e+00
	0.000000000000000e+00,0.000000000000000e+00
	2.473150785257137e-04,-6.035458779106654e-14
	1.309785885720738e-23,1.619038830894334e-13
	2.473150807411062e-12,-3.252765020679389e-15
	-2.473150809988645e-04,-9.829653027768743e-14
	-2.473150785257137e-04,6.035458779106654e-14
	-1.309785885720738e-23,-1.619038830894334e-13
	-2.473150785257137e-04,6.035458779106654e-14
44		2.754228703338163e+00,0.000000000000000e+00
	-2.473150785257137e+00,6.176042673859193e-10
	1.000000000000000e+00,0.000000000000000e+00
	0.000000000000000e+00,0.000000000000000e+00
	2.473150785257137e-04,-6.176042673859193e-14
	1.371514192772317e-23,1.656751089884596e-13
	2.473150807411062e-12,-3.328531651197195e-15
	-2.473150809988645e-04,-1.005861505986705e-13
	-2.473150785257137e-04,6.176042673859194e-14
	-1.371514192772317e-23,-1.656751089884596e-13
	-2.473150785257137e-04,6.176042673859194e-14
45		2.818382931264450e+00,0.000000000000000e+00
	-2.473150785257137e+00,6.319901188187004e-10
	1.000000000000000e+00,0.000000000000000e+00
	0.000000000000000e+00,0.000000000000000e+00
	2.473150785257137e-04,-6.319901188187005e-14
	1.436151665308878e-23,1.695341780232409e-13
	2.473150807411062e-12,-3.406063113254769e-15
	-2.473150809988645e-04,-1.029291030281161e-13
	-2.473150785257137e-04,6.319901188187005e-14
	-1.436151665308878e-23,-1.695341780232409e-13
	-2.473150785257137e-04,6.319901188187005e-14
46		2.884031503126602e+00,0.000000000000000e+00
	-2.473150785257137e+00,6.467110597778571e-10
	1.000000000000000e+00,0.000000000000000e+00
	0.000000000000000e+00,0.000000000000000e+00
	2.473150785257137e-04,-6.467110597778572e-14
	1.503835408075766e-23,1.734831363232602e-13
	2.473150807411062e-12,-3.485400515059554e-15
	-2.473150809988645e-04,-1.053266298304150e-13
	-2.473150785257137e-04,6.467110597778572e-14
	-1.503835408075766e-23,-1.734831363232603e-13
	-2.473150785257137e-04,6.467110597778572e-14
47		2.951209226666381e+00,0.000000000000000e+00
	-2.473150785257137e+00,6.617748955011411e-10
	1.000000000000000e+00,0.000000000000000e+00
	0.000000000000000e+00,0.000000000000000e+00
	2.473150785257137e-04,-6.617748955011413e-14
	1.574708987365910e-23,1.775240776784790e-13
	2.473150807411062e-12,-3.566585922352181e-15
	-2.473150809988645e-04,-1.077800022060127e-13
	-2.473150785257137e-04,6.617748955011411e-14
	-1.574708987365910e-23,-1.775240776784790e-13
	-2.473150785257137e-04,6.617748955011411e-14
48		3.019951720402012e+00,0.000000000000000e+00
	-2.473150785257137e+00,6.771896130336461e-10
	1.000000000000000e+00,0.000000000000000e+00
	0.000000000000000e+00,0.000000000000000e+00
	2.473150785257137e-04,-6.771896130336462e-14
	1.648922735543167e-23,1.816591446494918e-13
	2.473150807411062e-12,-3.649662380710167e-15
	-2.473150809988645e-04,-1.102905209654170e-13
	-2.473150785257137e-04,6.771896130336461e-14
	-1.648922735543167e-23,-1.816591446494918e-13
	-2.473150785257137e-04,6.771896130336461e-14
49		3.090295432513586e+00,0.000000000000000e+00
	-2.473150785257137e+00,6.929633854626457e-10
	1.000000000000000e+00,0.000000000000000e+00
	0.000000000000000e+00,0.000000000000000e+00
	2.473150785257137e-04,-6.929633854626456e-14
	1.726634069917434e-23,1.858905297035408e-13
	2.473150807411062e-12,-3.734673938371426e-15
	-2.473150809988645e-04,-1.128595172189048e-13
	-2.473150785257137e-04,6.929633854626458e-14
	-1.726634069917434e-23,-1.858905297035408e-13
	-2.473150785257137e-04,6.929633854626458e-14
50		3.162277660168374e+00,0.000000000000000e+00
	-2.473150785257137e+00,7.091045762510724e-10
	1.000000000000000e+00,0.000000000000000e+00
	0.000000000000000e+00,0.000000000000000e+00
	2.473150785257137e-04,-7.091045762510725e-14
	1.808007826647858e-23,1.902204763769906e-13
	2.473150807411062e-12,-3.821665669588998e-15
	-2.473150809988645e-04,-1.154883530822944e-13
	-2.473150785257137e-04,7.091045762510724e-14
	-1.808007826647858e-23,-1.902204763769907e-13
	-2.473150785257137e-04,7.091045762510724e-14
51		3.235936569296277e+00,0.000000000000000e+00
	-2.473150785257137e+00,7.256217436719359e-10
	1.000000000000000e+00,0.000000000000000e+00
	0.000000000000000e+00,0.000000000000000e+00
	2.473150785257137e-04,-7.256217436719359e-14
	1.893216610382434e-23,1.946512804648812e-13
	2.473150807411062e-12,-3.910683698530389e-15
	-2.473150809988645e-04,-1.181784223991573e-13
	-2.473150785257137e-04,7.256217436719359e-14
	-1.893216610382434e-23,-1.946512804648813e-13
	-2.473150785257137e-04,7.256217436719359e-14
52		3.311311214825905e+00,0.000000000000000e+00
	-2.473150785257137e+00,7.425236453460337e-10
	1.000000000000000e+00,0.000000000000000e+00
	0.000000000000000e+00,0.000000000000000e+00
	2.473150785257137e-04,-7.425236453460336e-14
	1.982441160375603e-23,1.991852912381886e-13
	2.473150807411062e-12,-4.001775223732727e-15
	-2.473150809988645e-04,-1.209311514798525e-13
	-2.473150785257137e-04,7.425236453460338e-14
	-1.982441160375603e-23,-1.991852912381886e-13
	-2.473150785257137e-04,7.425236453460338e-14
53		3.388441561392020e+00,0.000000000000000e+00
	-2.473150785257137e+00,7.598192428853562e-10
	1.000000000000000e+00,0.000000000000000e+00
	0.000000000000000e+00,0.000000000000000e+00
	2.473150785257137e-04,-7.598192428853562e-14
	2.075870733860446e-23,2.038249126894395e-13
	2.473150807411062e-12,-4.094988543128445e-15
	-2.473150809988645e-04,-1.237479998577754e-13
	-2.473150785257137e-04,7.598192428853562e-14
	-2.075870733860446e-23,-2.038249126894395e-13
	-2.473150785257137e-04,7.598192428853562e-14
54		3.467368504525310e+00,0.000000000000000e+00
	-2.473150785257137e+00,7.775177066446533e-10
	1.000000000000000e+00,0.000000000000000e+00
	0.000000000000000e+00,0.000000000000000e+00
	2.473150785257137e-04,-7.775177066446532e-14
	2.173703507488644e-23,2.085726048073400e-13
	2.473150807411062e-12,-4.190373079653338e-15
	-2.473150809988645e-04,-1.266304610632213e-13
	-2.473150785257137e-04,7.775177066446533e-14
	-2.173703507488644e-23,-2.085726048073400e-13
	-2.473150785257137e-04,7.775177066446533e-14
55		3.548133892335748e+00,0.000000000000000e+00
	-2.473150785257137e+00,7.956284205836768e-10
	1.000000000000000e+00,0.000000000000000e+00
	0.000000000000000e+00,0.000000000000000e+00
	2.473150785257137e-04,-7.956284205836768e-14
	2.276146997689731e-23,2.134308848810942e-13
	2.473150807411062e-12,-4.287979407451193e-15
	-2.473150809988645e-04,-1.295800634152753e-13
	-2.473150785257137e-04,7.956284205836769e-14
	-2.276146997689731e-23,-2.134308848810942e-13
	-2.473150785257137e-04,7.956284205836769e-14
56		3.630780547701007e+00,0.000000000000000e+00
	-2.473150785257137e+00,8.141609872426809e-10
	1.000000000000000e+00,0.000000000000000e+00
	0.000000000000000e+00,0.000000000000000e+00
	2.473150785257137e-04,-8.141609872426809e-14
	2.383418500841262e-23,2.184023288351040e-13
	2.473150807411062e-12,-4.387859278688940e-15
	-2.473150809988645e-04,-1.325983708321469e-13
	-2.473150785257137e-04,8.141609872426809e-14
	-2.383418500841262e-23,-2.184023288351040e-13
	-2.473150785257137e-04,8.141609872426809e-14
57		3.715352290971718e+00,0.000000000000000e+00
	-2.473150785257137e+00,8.331252328338158e-10
	1.000000000000000e+00,0.000000000000000e+00
	0.000000000000000e+00,0.000000000000000e+00
	2.473150785257137e-04,-8.331252328338158e-14
	2.495745554183562e-23,2.234895725947588e-13
	2.473150807411062e-12,-4.490065650996477e-15
	-2.473150809988645e-04,-1.356869836603807e-13
	-2.473150785257137e-04,8.331252328338158e-14
	-2.495745554183562e-23,-2.234895725947588e-13
	-2.473150785257137e-04,8.331252328338158e-14