Title: * GA CMOS Amp | W=5e-05 L=1e-06 Vbias=0.9162324166967521
Date: Mon Sep  8 21:04:46 2025
Plotname: AC Analysis
Flags: complex forward log nocompression
No. Variables: 2
No. Points:         3601
Offset:    0.0000000000000000e+00
Command: Linear Technology Corporation LTspice
Variables:
	0	frequency	frequency
	1	V(out)	voltage
Values:
0		1.000000000000000e+00,0.000000000000000e+00
	-8.706014012834041e+00,5.536946788536219e-09
1		1.005773063001738e+00,0.000000000000000e+00
	-8.706014012834041e+00,5.568911931183712e-09
2		1.011579454259899e+00,0.000000000000000e+00
	-8.706014012834041e+00,5.601061610613567e-09
3		1.017419366180605e+00,0.000000000000000e+00
	-8.706014012834041e+00,5.633396892168257e-09
4		1.023292992280754e+00,0.000000000000000e+00
	-8.706014012834041e+00,5.665918847340541e-09
5		1.029200527194428e+00,0.000000000000000e+00
	-8.706014012834041e+00,5.698628553808974e-09
6		1.035142166679344e+00,0.000000000000000e+00
	-8.706014012834041e+00,5.731527095473618e-09
7		1.041118107623340e+00,0.000000000000000e+00
	-8.706014012834041e+00,5.764615562491958e-09
8		1.047128548050900e+00,0.000000000000000e+00
	-8.706014012834041e+00,5.797895051315024e-09
9		1.053173687129716e+00,0.000000000000000e+00
	-8.706014012834041e+00,5.831366664723731e-09
10		1.059253725177289e+00,0.000000000000000e+00
	-8.706014012834041e+00,5.865031511865420e-09
11		1.065368863667564e+00,0.000000000000000e+00
	-8.706014012834041e+00,5.898890708290599e-09
12		1.071519305237607e+00,0.000000000000000e+00
	-8.706014012834041e+00,5.932945375989930e-09
13		1.077705253694323e+00,0.000000000000000e+00
	-8.706014012834041e+00,5.967196643431391e-09
14		1.083926914021204e+00,0.000000000000000e+00
	-8.706014012834041e+00,6.001645645597683e-09
15		1.090184492385128e+00,0.000000000000000e+00
	-8.706014012834041e+00,6.036293524023825e-09
16		1.096478196143186e+00,0.000000000000000e+00
	-8.706014012834041e+00,6.071141426835001e-09
17		1.102808233849553e+00,0.000000000000000e+00
	-8.706014012834041e+00,6.106190508784583e-09
18		1.109174815262402e+00,0.000000000000000e+00
	-8.706014012834041e+00,6.141441931292413e-09
19		1.115578151350854e+00,0.000000000000000e+00
	-8.706014012834041e+00,6.176896862483282e-09
20		1.122018454301965e+00,0.000000000000000e+00
	-8.706014012834041e+00,6.212556477225637e-09
21		1.128495937527763e+00,0.000000000000000e+00
	-8.706014012834041e+00,6.248421957170520e-09
22		1.135010815672317e+00,0.000000000000000e+00
	-8.706014012834041e+00,6.284494490790709e-09
23		1.141563304618847e+00,0.000000000000000e+00
	-8.706014012834041e+00,6.320775273420121e-09
24		1.148153621496885e+00,0.000000000000000e+00
	-8.706014012834041e+00,6.357265507293404e-09
25		1.154781984689460e+00,0.000000000000000e+00
	-8.706014012834041e+00,6.393966401585787e-09
26		1.161448613840345e+00,0.000000000000000e+00
	-8.706014012834041e+00,6.430879172453140e-09
27		1.168153729861326e+00,0.000000000000000e+00
	-8.706014012834041e+00,6.468005043072279e-09
28		1.174897554939532e+00,0.000000000000000e+00
	-8.706014012834041e+00,6.505345243681495e-09
29		1.181680312544786e+00,0.000000000000000e+00
	-8.706014012834041e+00,6.542901011621328e-09
30		1.188502227437020e+00,0.000000000000000e+00
	-8.706014012834041e+00,6.580673591375555e-09
31		1.195363525673721e+00,0.000000000000000e+00
	-8.706014012834041e+00,6.618664234612441e-09
32		1.202264434617415e+00,0.000000000000000e+00
	-8.706014012834041e+00,6.656874200226210e-09
33		1.209205182943211e+00,0.000000000000000e+00
	-8.706014012834041e+00,6.695304754378763e-09
34		1.216186000646371e+00,0.000000000000000e+00
	-8.706014012834041e+00,6.733957170541629e-09
35		1.223207119049934e+00,0.000000000000000e+00
	-8.706014012834041e+00,6.772832729538174e-09
36		1.230268770812384e+00,0.000000000000000e+00
	-8.706014012834041e+00,6.811932719586032e-09
37		1.237371189935355e+00,0.000000000000000e+00
	-8.706014012834041e+00,6.851258436339805e-09
38		1.244514611771388e+00,0.000000000000000e+00
	-8.706014012834041e+00,6.890811182933986e-09
39		1.251699273031728e+00,0.000000000000000e+00
	-8.706014012834041e+00,6.930592270026146e-09
40		1.258925411794170e+00,0.000000000000000e+00
	-8.706014012834041e+00,6.970603015840367e-09
41		1.266193267510947e+00,0.000000000000000e+00
	-8.706014012834041e+00,7.010844746210921e-09
42		1.273503081016665e+00,0.000000000000000e+00
	-8.706014012834041e+00,7.051318794626202e-09
43		1.280855094536282e+00,0.000000000000000e+00
	-8.706014012834041e+00,7.092026502272920e-09
44		1.288249551693137e+00,0.000000000000000e+00
	-8.706014012834041e+00,7.132969218080539e-09
45		1.295686697517022e+00,0.000000000000000e+00
	-8.706014012834041e+00,7.174148298765978e-09
46		1.303166778452302e+00,0.000000000000000e+00
	-8.706014012834041e+00,7.215565108878567e-09
47		1.310690042366080e+00,0.000000000000000e+00
	-8.706014012834041e+00,7.257221020845268e-09
48		1.318256738556410e+00,0.000000000000000e+00
	-8.706014012834041e+00,7.299117415016147e-09
49		1.325867117760563e+00,0.000000000000000e+00
	-8.706014012834041e+00,7.341255679710120e-09
50		1.333521432163328e+00,0.000000000000000e+00
	-8.706014012834041e+00,7.383637211260956e-09
51		1.341219935405375e+00,0.000000000000000e+00
	-8.706014012834041e+00,7.426263414063545e-09
52		1.348962882591657e+00,0.000000000000000e+00
	-8.706014012834041e+00,7.469135700620438e-09
53		1.356750530299865e+00,0.000000000000000e+00
	-8.706014012834041e+00,7.512255491588652e-09
54		1.364583136588928e+00,0.000000000000000e+00
	-8.706014012834041e+00,7.555624215826749e-09
55		1.372460961007566e+00,0.000000000000000e+00
	-8.706014012834041e+00,7.599243310442176e-09
56		1.380384264602889e+00,0.000000000000000e+00
	-8.706014012834041e+00,7.643114220838896e-09
57		1.388353309929050e+00,0.000000000000000e+00
	-8.706014012834041e+00,7.687238400765281e-09
58		1.396368361055942e+00,0.000000000000000e+00
	-8.706014012834041e+00,7.731617312362284e-09
59		1.404429683577952e+00,0.000000000000000e+00
	-8.706014012834041e+00,7.776252426211882e-09
60		1.412537544622759e+00,0.000000000000000e+00
	-8.706014012834041e+00,7.821145221385823e-09
61		1.420692212860187e+00,0.000000000000000e+00
	-8.706014012834041e+00,7.866297185494626e-09
62		1.428893958511108e+00,0.000000000000000e+00
	-8.706014012834041e+00,7.911709814736883e-09
63		1.437143053356396e+00,0.000000000000000e+00
	-8.706014012834041e+00,7.957384613948831e-09
64		1.445439770745933e+00,0.000000000000000e+00
	-8.706014012834041e+00,8.003323096654221e-09
65		1.453784385607667e+00,0.000000000000000e+00
	-8.706014012834041e+00,8.049526785114472e-09
66		1.462177174456723e+00,0.000000000000000e+00
	-8.706014012834041e+00,8.095997210379117e-09
67		1.470618415404566e+00,0.000000000000000e+00
	-8.706014012834041e+00,8.142735912336533e-09
68		1.479108388168213e+00,0.000000000000000e+00
	-8.706014012834041e+00,8.189744439764968e-09
69		1.487647374079508e+00,0.000000000000000e+00
	-8.706014012834041e+00,8.237024350383868e-09
70		1.496235656094439e+00,0.000000000000000e+00
	-8.706014012834041e+00,8.284577210905488e-09
71		1.504873518802520e+00,0.000000000000000e+00
	-8.706014012834041e+00,8.332404597086810e-09
72		1.513561248436214e+00,0.000000000000000e+00
	-8.706014012834041e+00,8.380508093781767e-09
73		1.522299132880426e+00,0.000000000000000e+00
	-8.706014012834041e+00,8.428889294993747e-09
74		1.531087461682036e+00,0.000000000000000e+00
	-8.706014012834041e+00,8.477549803928420e-09
75		1.539926526059498e+00,0.000000000000000e+00
	-8.706014012834041e+00,8.526491233046874e-09
76		1.548816618912488e+00,0.000000000000000e+00
	-8.706014012834041e+00,8.575715204119022e-09
77		1.557758034831609e+00,0.000000000000000e+00
	-8.706014012834041e+00,8.625223348277369e-09
78		1.566751070108156e+00,0.000000000000000e+00
	-8.706014012834041e+00,8.675017306071036e-09
79		1.575796022743931e+00,0.000000000000000e+00
	-8.706014012834041e+00,8.725098727520154e-09
80		1.584893192461120e+00,0.000000000000000e+00
	-8.706014012834041e+00,8.775469272170516e-09
81		1.594042880712224e+00,0.000000000000000e+00
	-8.706014012834041e+00,8.826130609148574e-09
82		1.603245390690048e+00,0.000000000000000e+00
	-8.706014012834041e+00,8.877084417216760e-09
83		1.612501027337748e+00,0.000000000000000e+00
	-8.706014012834041e+00,8.928332384829103e-09
84		1.621810097358937e+00,0.000000000000000e+00
	-8.706014012834041e+00,8.979876210187179e-09
85		1.631172909227846e+00,0.000000000000000e+00
	-8.706014012834041e+00,9.031717601296403e-09
86		1.640589773199547e+00,0.000000000000000e+00
	-8.706014012834041e+00,9.083858276022597e-09
87		1.650061001320235e+00,0.000000000000000e+00
	-8.706014012834041e+00,9.136299962148936e-09
88		1.659586907437568e+00,0.000000000000000e+00
	-8.706014012834041e+00,9.189044397433200e-09
89		1.669167807211066e+00,0.000000000000000e+00
	-8.706014012834041e+00,9.242093329665353e-09
90		1.678804018122569e+00,0.000000000000000e+00
	-8.706014012834041e+00,9.295448516725457e-09
91		1.688495859486762e+00,0.000000000000000e+00
	-8.706014012834041e+00,9.349111726641928e-09
92		1.698243652461753e+00,0.000000000000000e+00
	-8.706014012834041e+00,9.403084737650120e-09
93		1.708047720059717e+00,0.000000000000000e+00
	-8.706014012834041e+00,9.457369338251260e-09
94		1.717908387157597e+00,0.000000000000000e+00
	-8.706014012834041e+00,9.511967327271694e-09
95		1.727825980507873e+00,0.000000000000000e+00
	-8.706014012834041e+00,9.566880513922509e-09
96		1.737800828749385e+00,0.000000000000000e+00
	-8.706014012834041e+00,9.622110717859487e-09
97		1.747833262418228e+00,0.000000000000000e+00
	-8.706014012834041e+00,9.677659769243390e-09
98		1.757923613958702e+00,0.000000000000000e+00
	-8.706014012834041e+00,9.733529508800623e-09
99		1.768072217734330e+00,0.000000000000000e+00
	-8.706014012834041e+00,9.789721787884205e-09
100		1.778279410038933e+00,0.000000000000000e+00
	-8.706014012834041e+00,9.846238468535154e-09
101		1.788545529107782e+00,0.000000000000000e+00
	-8.706014012834041e+00,9.903081423544145e-09
102		1.798870915128798e+00,0.000000000000000e+00
	-8.706014012834041e+00,9.960252536513609e-09
103		1.809255910253831e+00,0.000000000000000e+00
	-8.706014012834041e+00,1.001775370192013e-08
104		1.819700858609994e+00,0.000000000000000e+00
	-8.706014012834041e+00,1.007558682517721e-08
105		1.830206106311067e+00,0.000000000000000e+00
	-8.706014012834041e+00,1.013375382269844e-08
106		1.840772001468967e+00,0.000000000000000e+00
	-8.706014012834041e+00,1.019225662196099e-08
107		1.851398894205283e+00,0.000000000000000e+00
	-8.706014012834041e+00,1.025109716156945e-08
108		1.862087136662879e+00,0.000000000000000e+00
	-8.706014012834041e+00,1.031027739132013e-08
109		1.872837083017560e+00,0.000000000000000e+00
	-8.706014012834041e+00,1.036979927226562e-08
110		1.883649089489812e+00,0.000000000000000e+00
	-8.706014012834041e+00,1.042966477677979e-08
111		1.894523514356604e+00,0.000000000000000e+00
	-8.706014012834041e+00,1.048987588862315e-08
112		1.905460717963259e+00,0.000000000000000e+00
	-8.706014012834041e+00,1.055043460300859e-08
113		1.916461062735399e+00,0.000000000000000e+00
	-8.706014012834041e+00,1.061134292666747e-08
114		1.927524913190948e+00,0.000000000000000e+00
	-8.706014012834041e+00,1.067260287791618e-08
115		1.938652635952220e+00,0.000000000000000e+00
	-8.706014012834041e+00,1.073421648672292e-08
116		1.949844599758058e+00,0.000000000000000e+00
	-8.706014012834041e+00,1.079618579477507e-08
117		1.961101175476061e+00,0.000000000000000e+00
	-8.706014012834041e+00,1.085851285554678e-08
118		1.972422736114867e+00,0.000000000000000e+00
	-8.706014012834041e+00,1.092119973436704e-08
119		1.983809656836519e+00,0.000000000000000e+00
	-8.706014012834041e+00,1.098424850848810e-08
120		1.995262314968893e+00,0.000000000000000e+00
	-8.706014012834041e+00,1.104766126715436e-08
121		2.006781090018203e+00,0.000000000000000e+00
	-8.706014012834041e+00,1.111144011167150e-08
122		2.018366363681575e+00,0.000000000000000e+00
	-8.706014012834041e+00,1.117558715547622e-08
123		2.030018519859698e+00,0.000000000000000e+00
	-8.706014012834041e+00,1.124010452420621e-08
124		2.041737944669544e+00,0.000000000000000e+00
	-8.706014012834041e+00,1.130499435577057e-08
125		2.053525026457161e+00,0.000000000000000e+00
	-8.706014012834041e+00,1.137025880042073e-08
126		2.065380155810544e+00,0.000000000000000e+00
	-8.706014012834041e+00,1.143590002082163e-08
127		2.077303725572579e+00,0.000000000000000e+00
	-8.706014012834041e+00,1.150192019212341e-08
128		2.089296130854055e+00,0.000000000000000e+00
	-8.706014012834041e+00,1.156832150203351e-08
129		2.101357769046763e+00,0.000000000000000e+00
	-8.706014012834041e+00,1.163510615088911e-08
130		2.113489039836662e+00,0.000000000000000e+00
	-8.706014012834041e+00,1.170227635173011e-08
131		2.125690345217123e+00,0.000000000000000e+00
	-8.706014012834041e+00,1.176983433037240e-08
132		2.137962089502248e+00,0.000000000000000e+00
	-8.706014012834041e+00,1.183778232548166e-08
133		2.150304679340273e+00,0.000000000000000e+00
	-8.706014012834041e+00,1.190612258864753e-08
134		2.162718523727037e+00,0.000000000000000e+00
	-8.706014012834041e+00,1.197485738445821e-08
135		2.175204034019540e+00,0.000000000000000e+00
	-8.706014012834041e+00,1.204398899057552e-08
136		2.187761623949570e+00,0.000000000000000e+00
	-8.706014012834041e+00,1.211351969781036e-08
137		2.200391709637416e+00,0.000000000000000e+00
	-8.706014012834041e+00,1.218345181019861e-08
138		2.213094709605655e+00,0.000000000000000e+00
	-8.706014012834041e+00,1.225378764507753e-08
139		2.225871044793023e+00,0.000000000000000e+00
	-8.706014012834041e+00,1.232452953316248e-08
140		2.238721138568358e+00,0.000000000000000e+00
	-8.706014012834041e+00,1.239567981862422e-08
141		2.251645416744636e+00,0.000000000000000e+00
	-8.706014012834041e+00,1.246724085916651e-08
142		2.264644307593079e+00,0.000000000000000e+00
	-8.706014012834041e+00,1.253921502610433e-08
143		2.277718241857341e+00,0.000000000000000e+00
	-8.706014012834041e+00,1.261160470444237e-08
144		2.290867652767792e+00,0.000000000000000e+00
	-8.706014012834041e+00,1.268441229295414e-08
145		2.304092976055865e+00,0.000000000000000e+00
	-8.706014012834041e+00,1.275764020426138e-08
146		2.317394649968498e+00,0.000000000000000e+00
	-8.706014012834041e+00,1.283129086491409e-08
147		2.330773115282658e+00,0.000000000000000e+00
	-8.706014012834041e+00,1.290536671547087e-08
148		2.344228815319942e+00,0.000000000000000e+00
	-8.706014012834041e+00,1.297987021057982e-08
149		2.357762195961275e+00,0.000000000000000e+00
	-8.706014012834041e+00,1.305480381905989e-08
150		2.371373705661676e+00,0.000000000000000e+00
	-8.706014012834041e+00,1.313017002398265e-08
151		2.385063795465127e+00,0.000000000000000e+00
	-8.706014012834041e+00,1.320597132275464e-08
152		2.398832919019512e+00,0.000000000000000e+00
	-8.706014012834041e+00,1.328221022720005e-08
153		2.412681532591656e+00,0.000000000000000e+00
	-8.706014012834041e+00,1.335888926364401e-08
154		2.426610095082438e+00,0.000000000000000e+00
	-8.706014012834041e+00,1.343601097299628e-08
155		2.440619068042003e+00,0.000000000000000e+00
	-8.706014012834041e+00,1.351357791083543e-08
156		2.454708915685053e+00,0.000000000000000e+00
	-8.706014012834041e+00,1.359159264749358e-08
157		2.468880104906232e+00,0.000000000000000e+00
	-8.706014012834041e+00,1.367005776814153e-08
158		2.483133105295594e+00,0.000000000000000e+00
	-8.706014012834041e+00,1.374897587287441e-08
159		2.497468389154167e+00,0.000000000000000e+00
	-8.706014012834041e+00,1.382834957679789e-08
160		2.511886431509604e+00,0.000000000000000e+00
	-8.706014012834041e+00,1.390818151011481e-08
161		2.526387710131921e+00,0.000000000000000e+00
	-8.706014012834041e+00,1.398847431821231e-08
162		2.540972705549330e+00,0.000000000000000e+00
	-8.706014012834041e+00,1.406923066174955e-08
163		2.555641901064163e+00,0.000000000000000e+00
	-8.706014012834041e+00,1.415045321674582e-08
164		2.570395782768889e+00,0.000000000000000e+00
	-8.706014012834041e+00,1.423214467466924e-08
165		2.585234839562216e+00,0.000000000000000e+00
	-8.706014012834041e+00,1.431430774252596e-08
166		2.600159563165298e+00,0.000000000000000e+00
	-8.706014012834041e+00,1.439694514294983e-08
167		2.615170448138023e+00,0.000000000000000e+00
	-8.706014012834041e+00,1.448005961429265e-08
168		2.630267991895408e+00,0.000000000000000e+00
	-8.706014012834041e+00,1.456365391071489e-08
169		2.645452694724076e+00,0.000000000000000e+00
	-8.706014012834041e+00,1.464773080227696e-08
170		2.660725059798836e+00,0.000000000000000e+00
	-8.706014012834041e+00,1.473229307503101e-08
171		2.676085593199359e+00,0.000000000000000e+00
	-8.706014012834041e+00,1.481734353111324e-08
172		2.691534803926943e+00,0.000000000000000e+00
	-8.706014012834041e+00,1.490288498883675e-08
173		2.707073203921385e+00,0.000000000000000e+00
	-8.706014012834041e+00,1.498892028278496e-08
174		2.722701308077940e+00,0.000000000000000e+00
	-8.706014012834041e+00,1.507545226390552e-08
175		2.738419634264389e+00,0.000000000000000e+00
	-8.706014012834041e+00,1.516248379960474e-08
176		2.754228703338195e+00,0.000000000000000e+00
	-8.706014012834041e+00,1.525001777384269e-08
177		2.770129039163762e+00,0.000000000000000e+00
	-8.706014012834041e+00,1.533805708722872e-08
178		2.786121168629800e+00,0.000000000000000e+00
	-8.706014012834041e+00,1.542660465711755e-08
179		2.802205621666776e+00,0.000000000000000e+00
	-8.706014012834041e+00,1.551566341770600e-08
180		2.818382931264483e+00,0.000000000000000e+00
	-8.706014012834041e+00,1.560523632013018e-08
181		2.834653633489697e+00,0.000000000000000e+00
	-8.706014012834041e+00,1.569532633256330e-08
182		2.851018267503939e+00,0.000000000000000e+00
	-8.706014012834041e+00,1.578593644031403e-08
183		2.867477375581346e+00,0.000000000000000e+00
	-8.706014012834041e+00,1.587706964592540e-08
184		2.884031503126637e+00,0.000000000000000e+00
	-8.706014012834041e+00,1.596872896927432e-08
185		2.900681198693185e+00,0.000000000000000e+00
	-8.706014012834041e+00,1.606091744767162e-08
186		2.917427014001198e+00,0.000000000000000e+00
	-8.706014012834041e+00,1.615363813596275e-08
187		2.934269503956000e+00,0.000000000000000e+00
	-8.706014012834041e+00,1.624689410662894e-08
188		2.951209226666418e+00,0.000000000000000e+00
	-8.706014012834041e+00,1.634068844988908e-08
189		2.968246743463274e+00,0.000000000000000e+00
	-8.706014012834041e+00,1.643502427380207e-08
190		2.985382618917992e+00,0.000000000000000e+00
	-8.706014012834041e+00,1.652990470436983e-08
191		3.002617420861300e+00,0.000000000000000e+00
	-8.706014012834041e+00,1.662533288564088e-08
192		3.019951720402049e+00,0.000000000000000e+00
	-8.706014012834041e+00,1.672131197981456e-08
193		3.037386091946138e+00,0.000000000000000e+00
	-8.706014012834041e+00,1.681784516734575e-08
194		3.054921113215547e+00,0.000000000000000e+00
	-8.706014012834041e+00,1.691493564705032e-08
195		3.072557365267481e+00,0.000000000000000e+00
	-8.706014012834041e+00,1.701258663621108e-08
196		3.090295432513625e+00,0.000000000000000e+00
	-8.706014012834041e+00,1.711080137068446e-08
197		3.108135902739511e+00,0.000000000000000e+00
	-8.706014012834041e+00,1.720958310500765e-08
198		3.126079367123991e+00,0.000000000000000e+00
	-8.706014012834041e+00,1.730893511250652e-08
199		3.144126420258832e+00,0.000000000000000e+00
	-8.706014012834041e+00,1.740886068540402e-08
200		3.162277660168416e+00,0.000000000000000e+00
	-8.706014012834041e+00,1.750936313492934e-08
201		3.180533688329558e+00,0.000000000000000e+00
	-8.706014012834041e+00,1.761044579142760e-08
202		3.198895109691435e+00,0.000000000000000e+00
	-8.706014012834041e+00,1.771211200447021e-08
203		3.217362532695637e+00,0.000000000000000e+00
	-8.706014012834041e+00,1.781436514296586e-08
204		3.235936569296321e+00,0.000000000000000e+00
	-8.706014012834041e+00,1.791720859527217e-08
205		3.254617834980497e+00,0.000000000000000e+00
	-8.706014012834041e+00,1.802064576930797e-08
206		3.273406948788421e+00,0.000000000000000e+00
	-8.706014012834041e+00,1.812468009266619e-08
207		3.292304533334104e+00,0.000000000000000e+00
	-8.706014012834041e+00,1.822931501272751e-08
208		3.311311214825951e+00,0.000000000000000e+00
	-8.706014012834041e+00,1.833455399677452e-08
209		3.330427623087504e+00,0.000000000000000e+00
	-8.706014012834041e+00,1.844040053210667e-08
210		3.349654391578317e+00,0.000000000000000e+00
	-8.706014012834041e+00,1.854685812615581e-08
211		3.368992157414949e+00,0.000000000000000e+00
	-8.706014012834041e+00,1.865393030660241e-08
212		3.388441561392067e+00,0.000000000000000e+00
	-8.706014012834041e+00,1.876162062149246e-08
213		3.408003248003692e+00,0.000000000000000e+00
	-8.706014012834041e+00,1.886993263935504e-08
214		3.427677865464546e+00,0.000000000000000e+00
	-8.706014012834041e+00,1.897886994932060e-08
215		3.447466065731537e+00,0.000000000000000e+00
	-8.706014012834041e+00,1.908843616123983e-08
216		3.467368504525360e+00,0.000000000000000e+00
	-8.706014012834041e+00,1.919863490580332e-08
217		3.487385841352228e+00,0.000000000000000e+00
	-8.706014012834041e+00,1.930946983466190e-08
218		3.507518739525725e+00,0.000000000000000e+00
	-8.706014012834041e+00,1.942094462054757e-08
219		3.527767866188785e+00,0.000000000000000e+00
	-8.706014012834041e+00,1.953306295739526e-08
220		3.548133892335800e+00,0.000000000000000e+00
	-8.706014012834041e+00,1.964582856046523e-08
221		3.568617492834858e+00,0.000000000000000e+00
	-8.706014012834041e+00,1.975924516646614e-08
222		3.589219346450099e+00,0.000000000000000e+00
	-8.706014012834041e+00,1.987331653367895e-08
223		3.609940135864213e+00,0.000000000000000e+00
	-8.706014012834041e+00,1.998804644208136e-08
224		3.630780547701061e+00,0.000000000000000e+00
	-8.706014012834041e+00,2.010343869347317e-08
225		3.651741272548425e+00,0.000000000000000e+00
	-8.706014012834041e+00,2.021949711160217e-08
226		3.672823004980895e+00,0.000000000000000e+00
	-8.706014012834041e+00,2.033622554229091e-08
227		3.694026443582883e+00,0.000000000000000e+00
	-8.706014012834041e+00,2.045362785356412e-08
228		3.715352290971774e+00,0.000000000000000e+00
	-8.706014012834041e+00,2.057170793577685e-08
229		3.736801253821207e+00,0.000000000000000e+00
	-8.706014012834041e+00,2.069046970174345e-08
230		3.758374042884492e+00,0.000000000000000e+00
	-8.706014012834041e+00,2.080991708686717e-08
231		3.780071373018162e+00,0.000000000000000e+00
	-8.706014012834041e+00,2.093005404927061e-08
232		3.801893963205663e+00,0.000000000000000e+00
	-8.706014012834041e+00,2.105088456992684e-08
233		3.823842536581178e+00,0.000000000000000e+00
	-8.706014012834041e+00,2.117241265279134e-08
234		3.845917820453588e+00,0.000000000000000e+00
	-8.706014012834041e+00,2.129464232493471e-08
235		3.868120546330575e+00,0.000000000000000e+00
	-8.706014012834041e+00,2.141757763667604e-08
236		3.890451449942860e+00,0.000000000000000e+00
	-8.706014012834041e+00,2.154122266171720e-08
237		3.912911271268584e+00,0.000000000000000e+00
	-8.706014012834041e+00,2.166558149727776e-08
238		3.935500754557829e+00,0.000000000000000e+00
	-8.706014012834041e+00,2.179065826423084e-08
239		3.958220648357280e+00,0.000000000000000e+00
	-8.706014012834041e+00,2.191645710723959e-08
240		3.981071705535028e+00,0.000000000000000e+00
	-8.706014012834041e+00,2.204298219489458e-08
241		4.004054683305520e+00,0.000000000000000e+00
	-8.706014012834041e+00,2.217023771985191e-08
242		4.027170343254648e+00,0.000000000000000e+00
	-8.706014012834041e+00,2.229822789897213e-08
243		4.050419451364989e+00,0.000000000000000e+00
	-8.706014012834041e+00,2.242695697346001e-08
244		4.073802778041185e+00,0.000000000000000e+00
	-8.706014012834041e+00,2.255642920900507e-08
245		4.097321098135473e+00,0.000000000000000e+00
	-8.706014012834041e+00,2.268664889592290e-08
246		4.120975190973360e+00,0.000000000000000e+00
	-8.706014012834041e+00,2.281762034929738e-08
247		4.144765840379450e+00,0.000000000000000e+00
	-8.706014012834041e+00,2.294934790912362e-08
248		4.168693834703413e+00,0.000000000000000e+00
	-8.706014012834041e+00,2.308183594045180e-08
249		4.192759966846114e+00,0.000000000000000e+00
	-8.706014012834041e+00,2.321508883353182e-08
250		4.216965034285883e+00,0.000000000000000e+00
	-8.706014012834041e+00,2.334911100395875e-08
251		4.241309839104942e+00,0.000000000000000e+00
	-8.706014012834041e+00,2.348390689281918e-08
252		4.265795188015987e+00,0.000000000000000e+00
	-8.706014012834041e+00,2.361948096683838e-08
253		4.290421892388916e+00,0.000000000000000e+00
	-8.706014012834041e+00,2.375583771852830e-08
254		4.315190768277715e+00,0.000000000000000e+00
	-8.706014012834041e+00,2.389298166633643e-08
255		4.340102636447502e+00,0.000000000000000e+00
	-8.706014012834041e+00,2.403091735479557e-08
256		4.365158322401724e+00,0.000000000000000e+00
	-8.706014012834041e+00,2.416964935467438e-08
257		4.390358656409512e+00,0.000000000000000e+00
	-8.706014012834041e+00,2.430918226312883e-08
258		4.415704473533191e+00,0.000000000000000e+00
	-8.706014012834041e+00,2.444952070385462e-08
259		4.441196613655956e+00,0.000000000000000e+00
	-8.706014012834041e+00,2.459066932724028e-08
260		4.466835921509698e+00,0.000000000000000e+00
	-8.706014012834041e+00,2.473263281052135e-08
261		4.492623246703002e+00,0.000000000000000e+00
	-8.706014012834041e+00,2.487541585793535e-08
262		4.518559443749292e+00,0.000000000000000e+00
	-8.706014012834041e+00,2.501902320087765e-08
263		4.544645372095157e+00,0.000000000000000e+00
	-8.706014012834041e+00,2.516345959805827e-08
264		4.570881896148820e+00,0.000000000000000e+00
	-8.706014012834041e+00,2.530872983565955e-08
265		4.597269885308792e+00,0.000000000000000e+00
	-8.706014012834041e+00,2.545483872749479e-08
266		4.623810213992674e+00,0.000000000000000e+00
	-8.706014012834041e+00,2.560179111516771e-08
267		4.650503761666135e+00,0.000000000000000e+00
	-8.706014012834041e+00,2.574959186823292e-08
268		4.677351412872055e+00,0.000000000000000e+00
	-8.706014012834041e+00,2.589824588435727e-08
269		4.704354057259835e+00,0.000000000000000e+00
	-8.706014012834041e+00,2.604775808948218e-08
270		4.731512589614879e+00,0.000000000000000e+00
	-8.706014012834041e+00,2.619813343798679e-08
271		4.758827909888244e+00,0.000000000000000e+00
	-8.706014012834041e+00,2.634937691285224e-08
272		4.786300923226460e+00,0.000000000000000e+00
	-8.706014012834041e+00,2.650149352582669e-08
273		4.813932540001524e+00,0.000000000000000e+00
	-8.706014012834041e+00,2.665448831759144e-08
274		4.841723675841071e+00,0.000000000000000e+00
	-8.706014012834041e+00,2.680836635792800e-08
275		4.869675251658710e+00,0.000000000000000e+00
	-8.706014012834041e+00,2.696313274588600e-08
276		4.897788193684542e+00,0.000000000000000e+00
	-8.706014012834041e+00,2.711879260995224e-08
277		4.926063433495853e+00,0.000000000000000e+00
	-8.706014012834041e+00,2.727535110822056e-08
278		4.954501908047983e+00,0.000000000000000e+00
	-8.706014012834041e+00,2.743281342856285e-08
279		4.983104559705377e+00,0.000000000000000e+00
	-8.706014012834041e+00,2.759118478880088e-08
280		5.011872336272805e+00,0.000000000000000e+00
	-8.706014012834041e+00,2.775047043687923e-08
281		5.040806191026777e+00,0.000000000000000e+00
	-8.706014012834041e+00,2.791067565103921e-08
282		5.069907082747127e+00,0.000000000000000e+00
	-8.706014012834041e+00,2.807180573999374e-08
283		5.099175975748786e+00,0.000000000000000e+00
	-8.706014012834041e+00,2.823386604310328e-08
284		5.128613839913734e+00,0.000000000000000e+00
	-8.706014012834041e+00,2.839686193055276e-08
285		5.158221650723143e+00,0.000000000000000e+00
	-8.706014012834041e+00,2.856079880352951e-08
286		5.188000389289698e+00,0.000000000000000e+00
	-8.706014012834041e+00,2.872568209440225e-08
287		5.217951042390110e+00,0.000000000000000e+00
	-8.706014012834041e+00,2.889151726690114e-08
288		5.248074602497814e+00,0.000000000000000e+00
	-8.706014012834041e+00,2.905830981629877e-08
289		5.278372067815857e+00,0.000000000000000e+00
	-8.706014012834041e+00,2.922606526959230e-08
290		5.308844442309973e+00,0.000000000000000e+00
	-8.706014012834041e+00,2.939478918568656e-08
291		5.339492735741857e+00,0.000000000000000e+00
	-8.706014012834041e+00,2.956448715557835e-08
292		5.370317963702618e+00,0.000000000000000e+00
	-8.706014012834041e+00,2.973516480254158e-08
293		5.401321147646440e+00,0.000000000000000e+00
	-8.706014012834041e+00,2.990682778231373e-08
294		5.432503314924425e+00,0.000000000000000e+00
	-8.706014012834041e+00,3.007948178328316e-08
295		5.463865498818635e+00,0.000000000000000e+00
	-8.706014012834041e+00,3.025313252667769e-08
296		5.495408738576340e+00,0.000000000000000e+00
	-8.706014012834041e+00,3.042778576675414e-08
297		5.527134079444444e+00,0.000000000000000e+00
	-8.706014012834041e+00,3.060344729098901e-08
298		5.559042572704132e+00,0.000000000000000e+00
	-8.706014012834041e+00,3.078012292027027e-08
299		5.591135275705699e+00,0.000000000000000e+00
	-8.706014012834041e+00,3.095781850909024e-08
300		5.623413251903589e+00,0.000000000000000e+00
	-8.706014012834041e+00,3.113653994573959e-08
301		5.655877570891638e+00,0.000000000000000e+00
	-8.706014012834041e+00,3.131629315250249e-08
302		5.688529308438514e+00,0.000000000000000e+00
	-8.706014012834041e+00,3.149708408585279e-08
303		5.721369546523364e+00,0.000000000000000e+00
	-8.706014012834041e+00,3.167891873665147e-08
304		5.754399373371671e+00,0.000000000000000e+00
	-8.706014012834041e+00,3.186180313034511e-08
305		5.787619883491309e+00,0.000000000000000e+00
	-8.706014012834041e+00,3.204574332716557e-08
306		5.821032177708817e+00,0.000000000000000e+00
	-8.706014012834041e+00,3.223074542233084e-08
307		5.854637363205876e+00,0.000000000000000e+00
	-8.706014012834041e+00,3.241681554624694e-08
308		5.888436553555995e+00,0.000000000000000e+00
	-8.706014012834041e+00,3.260395986471115e-08
309		5.922430868761412e+00,0.000000000000000e+00
	-8.706014012834041e+00,3.279218457911627e-08
310		5.956621435290212e+00,0.000000000000000e+00
	-8.706014012834041e+00,3.298149592665614e-08
311		5.991009386113647e+00,0.000000000000000e+00
	-8.706014012834041e+00,3.317190018053231e-08
312		6.025595860743686e+00,0.000000000000000e+00
	-8.706014012834041e+00,3.336340365016189e-08