Title: * GA CMOS Amp | W=1.588627369035147e-05 L=3.0989487525483995e-07 Vbias=1.3730856704388432
Date: Sat Sep  6 22:12:25 2025
Plotname: AC Analysis
Flags: complex forward log
No. Variables: 13
No. Points:          901
Offset:    0.0000000000000000e+00
Command: Linear Technology Corporation LTspice
Variables:
	0	frequency	frequency
	1	V(out)	voltage
	2	V(g)	voltage
	3	V(vdd)	voltage
	4	V(m1#dbody)	voltage
	5	V(m1#sbody)	voltage
	6	Id(M1)	device_current
	7	Ig(M1)	device_current
	8	Ib(M1)	device_current
	9	Is(M1)	device_current
	10	I(Rload)	device_current
	11	I(Vg)	device_current
	12	I(Vdd)	device_current
Values:
0		1.000000000000000e+00,0.000000000000000e+00
	4.622175481512175e-03,1.439292114447005e-10
	1.000000000000000e+00,0.000000000000000e+00
	0.000000000000000e+00,0.000000000000000e+00
	5.449381660296681e-05,1.868607207395944e-14
	5.449381656521475e-05,1.696456568589170e-14
	-4.622175481512226e-07,-1.439292114447014e-14
	3.797039879698384e-05,1.355118750691310e-12
	-2.906336885927007e-05,-9.175589995972477e-15
	-8.444812389562557e-06,-1.331550239550867e-12
	4.622175481512175e-07,1.439292114447005e-14
	-3.797039879696595e-05,-1.355118750691310e-12
	4.622175481512175e-07,1.439292114447005e-14
1		1.023292992280754e+00,0.000000000000000e+00
	4.622175481512175e-03,1.472817534558569e-10
	1.000000000000000e+00,0.000000000000000e+00
	0.000000000000000e+00,0.000000000000000e+00
	5.449381660296681e-05,1.912132660653579e-14
	5.449381656521475e-05,1.735972118345953e-14
	-4.622175481512226e-07,-1.472817534558574e-14
	3.797039879698384e-05,1.386683521290668e-12
	-2.906336885927007e-05,-9.389316942920028e-15
	-8.444812389562557e-06,-1.362566029002162e-12
	4.622175481512175e-07,1.472817534558569e-14
	-3.797039879696595e-05,-1.386683521290668e-12
	4.622175481512175e-07,1.472817534558569e-14
2		1.047128548050899e+00,0.000000000000000e+00
	4.622175481512175e-03,1.507123862022001e-10
	1.000000000000000e+00,0.000000000000000e+00
	0.000000000000000e+00,0.000000000000000e+00
	5.449381660296681e-05,1.956671951957961e-14
	5.449381656521475e-05,1.776408103498189e-14
	-4.622175481512226e-07,-1.507123862021991e-14
	3.797039879698384e-05,1.418983529847940e-12
	-2.906336885927007e-05,-9.608022229993021e-15
	-8.444812389562557e-06,-1.394304268997727e-12
	4.622175481512175e-07,1.507123862022002e-14
	-3.797039879696595e-05,-1.418983529847940e-12
	4.622175481512175e-07,1.507123862022002e-14
3		1.071519305237606e+00,0.000000000000000e+00
	4.622175481512175e-03,1.542229286506220e-10
	1.000000000000000e+00,0.000000000000000e+00
	0.000000000000000e+00,0.000000000000000e+00
	5.449381660296681e-05,2.002248696630885e-14
	5.449381656521475e-05,1.817785963740441e-14
	-4.622175481512226e-07,-1.542229286506221e-14
	3.797039879698384e-05,1.452035902255205e-12
	-2.906336885927007e-05,-9.831821817629561e-15
	-8.444812389562557e-06,-1.426781787572513e-12
	4.622175481512175e-07,1.542229286506220e-14
	-3.797039879696595e-05,-1.452035902255206e-12
	4.622175481512175e-07,1.542229286506220e-14
4		1.096478196143185e+00,0.000000000000000e+00
	4.622175481512175e-03,1.578152421371962e-10
	1.000000000000000e+00,0.000000000000000e+00
	0.000000000000000e+00,0.000000000000000e+00
	5.449381660296681e-05,2.048887060065658e-14
	5.449381656521475e-05,1.860127638161910e-14
	-4.622175481512226e-07,-1.578152421371962e-14
	3.797039879698384e-05,1.485858163317813e-12
	-2.906336885927007e-05,-1.006083436733335e-14
	-8.444812389562557e-06,-1.460015804736760e-12
	4.622175481512175e-07,1.578152421371962e-14
	-3.797039879696595e-05,-1.485858163317813e-12
	4.622175481512175e-07,1.578152421371962e-14
5		1.122018454301963e+00,0.000000000000000e+00
	4.622175481512175e-03,1.614912313540833e-10
	1.000000000000000e+00,0.000000000000000e+00
	0.000000000000000e+00,0.000000000000000e+00
	5.449381660296681e-05,2.096611770539905e-14
	5.449381656521475e-05,1.903455576878834e-14
	-4.622175481512226e-07,-1.614912313540837e-14
	3.797039879698384e-05,1.520468246046271e-12
	-2.906336885927007e-05,-1.029518130458960e-14
	-8.444812389562557e-06,-1.494023941606273e-12
	4.622175481512175e-07,1.614912313540833e-14
	-3.797039879696595e-05,-1.520468246046271e-12
	4.622175481512175e-07,1.614912313540833e-14
6		1.148153621496882e+00,0.000000000000000e+00
	4.622175481512175e-03,1.652528453594234e-10
	1.000000000000000e+00,0.000000000000000e+00
	0.000000000000000e+00,0.000000000000000e+00
	5.449381660296681e-05,2.145448132326829e-14
	5.449381656521475e-05,1.947792752937831e-14
	-4.622175481512226e-07,-1.652528453594240e-14
	3.797039879698384e-05,1.555884501164558e-12
	-2.906336885927007e-05,-1.053498688324636e-14
	-8.444812389562557e-06,-1.528824229745370e-12
	4.622175481512175e-07,1.652528453594234e-14
	-3.797039879696595e-05,-1.555884501164558e-12
	4.622175481512175e-07,1.652528453594234e-14
7		1.174897554939529e+00,0.000000000000000e+00
	4.622175481512175e-03,1.691020786107531e-10
	1.000000000000000e+00,0.000000000000000e+00
	0.000000000000000e+00,0.000000000000000e+00
	5.449381660296681e-05,2.195422039111876e-14
	5.449381656521475e-05,1.993162674496520e-14
	-4.622175481512226e-07,-1.691020786107530e-14
	3.797039879698384e-05,1.592125706839929e-12
	-2.906336885927007e-05,-1.078037825139567e-14
	-8.444812389562557e-06,-1.564435120727458e-12
	4.622175481512175e-07,1.691020786107531e-14
	-3.797039879696595e-05,-1.592125706839929e-12
	4.622175481512175e-07,1.691020786107531e-14
8		1.202264434617413e+00,0.000000000000000e+00
	4.622175481512175e-03,1.730409720224929e-10
	1.000000000000000e+00,0.000000000000000e+00
	0.000000000000000e+00,0.000000000000000e+00
	5.449381660296681e-05,2.246559987721907e-14
	5.449381656521475e-05,2.039589397287855e-14
	-4.622175481512226e-07,-1.730409720224917e-14
	3.797039879698384e-05,1.629211078639342e-12
	-2.906336885927007e-05,-1.103148551878904e-14
	-8.444812389562557e-06,-1.600875495918304e-12
	4.622175481512175e-07,1.730409720224929e-14
	-3.797039879696595e-05,-1.629211078639342e-12
	4.622175481512175e-07,1.730409720224929e-14
9		1.230268770812381e+00,0.000000000000000e+00
	4.622175481512175e-03,1.770716140480670e-10
	1.000000000000000e+00,0.000000000000000e+00
	0.000000000000000e+00,0.000000000000000e+00
	5.449381660296681e-05,2.298889092174164e-14
	5.449381656521475e-05,2.087097537374788e-14
	-4.622175481512226e-07,-1.770716140480682e-14
	3.797039879698384e-05,1.667160279717807e-12
	-2.906336885927007e-05,-1.128844182582344e-14
	-8.444812389562557e-06,-1.638164676487177e-12
	4.622175481512175e-07,1.770716140480669e-14
	-3.797039879696595e-05,-1.667160279717807e-12
	4.622175481512175e-07,1.770716140480669e-14
10		1.258925411794167e+00,0.000000000000000e+00
	4.622175481512175e-03,1.811961417872293e-10
	1.000000000000000e+00,0.000000000000000e+00
	0.000000000000000e+00,0.000000000000000e+00
	5.449381660296681e-05,2.352437098052486e-14
	5.449381656521475e-05,2.135712284202041e-14
	-4.622175481512226e-07,-1.811961417872287e-14
	3.797039879698384e-05,1.705993431244054e-12
	-2.906336885927007e-05,-1.155138341413409e-14
	-8.444812389562557e-06,-1.676322433651197e-12
	4.622175481512175e-07,1.811961417872293e-14
	-3.797039879696595e-05,-1.705993431244054e-12
	4.622175481512175e-07,1.811961417872293e-14
11		1.288249551693134e+00,0.000000000000000e+00
	4.622175481512175e-03,1.854167421191816e-10
	1.000000000000000e+00,0.000000000000000e+00
	0.000000000000000e+00,0.000000000000000e+00
	5.449381660296681e-05,2.407232397218383e-14
	5.449381656521475e-05,2.185459413951871e-14
	-4.622175481512226e-07,-1.854167421191821e-14
	3.797039879698384e-05,1.745731123069039e-12
	-2.906336885927007e-05,-1.182044969883155e-14
	-8.444812389562557e-06,-1.715368999158289e-12
	4.622175481512175e-07,1.854167421191816e-14
	-3.797039879696595e-05,-1.745731123069040e-12
	4.622175481512175e-07,1.854167421191816e-14
12		1.318256738556407e+00,0.000000000000000e+00
	4.622175481512175e-03,1.897356528620863e-10
	1.000000000000000e+00,0.000000000000000e+00
	0.000000000000000e+00,0.000000000000000e+00
	5.449381660296681e-05,2.463304042864772e-14
	5.449381656521475e-05,2.236365303210953e-14
	-4.622175481512226e-07,-1.897356528620866e-14
	3.797039879698384e-05,1.786394424642958e-12
	-2.906336885927007e-05,-1.209578334242147e-14
	-8.444812389562557e-06,-1.755325076014328e-12
	4.622175481512175e-07,1.897356528620863e-14
	-3.797039879696595e-05,-1.786394424642959e-12
	4.622175481512175e-07,1.897356528620863e-14
13		1.348962882591653e+00,0.000000000000000e+00
	4.622175481512175e-03,1.941551639595867e-10
	1.000000000000000e+00,0.000000000000000e+00
	0.000000000000000e+00,0.000000000000000e+00
	5.449381660296681e-05,2.520681764920371e-14
	5.449381656521475e-05,2.288456942955592e-14
	-4.622175481512226e-07,-1.941551639595886e-14
	3.797039879698384e-05,1.828004896186549e-12
	-2.906336885927007e-05,-1.237753033044617e-14
	-8.444812389562557e-06,-1.796211849460144e-12
	4.622175481512175e-07,1.941551639595867e-14
	-3.797039879696595e-05,-1.828004896186549e-12
	4.622175481512175e-07,1.941551639595867e-14
14		1.380384264602885e+00,0.000000000000000e+00
	4.622175481512175e-03,1.986776186949660e-10
	1.000000000000000e+00,0.000000000000000e+00
	0.000000000000000e+00,0.000000000000000e+00
	5.449381660296681e-05,2.579395985812900e-14
	5.449381656521475e-05,2.341761952862695e-14
	-4.622175481512226e-07,-1.986776186949644e-14
	3.797039879698384e-05,1.870584600122603e-12
	-2.906336885927007e-05,-1.266584004888805e-14
	-8.444812389562557e-06,-1.838050998204219e-12
	4.622175481512175e-07,1.986776186949660e-14
	-3.797039879696595e-05,-1.870584600122603e-12
	4.622175481512175e-07,1.986776186949660e-14
15		1.412537544622754e+00,0.000000000000000e+00
	4.622175481512175e-03,2.033054149335864e-10
	1.000000000000000e+00,0.000000000000000e+00
	0.000000000000000e+00,0.000000000000000e+00
	5.449381660296681e-05,2.639477836599448e-14
	5.449381656521475e-05,2.396308595954089e-14
	-4.622175481512226e-07,-2.033054149335888e-14
	3.797039879698384e-05,1.914156112773757e-12
	-2.906336885927007e-05,-1.296086536337607e-14
	-8.444812389562557e-06,-1.880864705917022e-12
	4.622175481512175e-07,2.033054149335864e-14
	-3.797039879696595e-05,-1.914156112773757e-12
	4.622175481512175e-07,2.033054149335864e-14
16		1.445439770745927e+00,0.000000000000000e+00
	4.622175481512175e-03,2.080410063942699e-10
	1.000000000000000e+00,0.000000000000000e+00
	0.000000000000000e+00,0.000000000000000e+00
	5.449381660296681e-05,2.700959173472580e-14
	5.449381656521475e-05,2.452125793581953e-14
	-4.622175481512226e-07,-2.080410063942699e-14
	3.797039879698384e-05,1.958742536332753e-12
	-2.906336885927007e-05,-1.326276270023708e-14
	-8.444812389562557e-06,-1.924675672993089e-12
	4.622175481512175e-07,2.080410063942699e-14
	-3.797039879696595e-05,-1.958742536332754e-12
	4.622175481512175e-07,2.080410063942699e-14
17		1.479108388168207e+00,0.000000000000000e+00
	4.622175481512175e-03,2.128869039502920e-10
	1.000000000000000e+00,0.000000000000000e+00
	0.000000000000000e+00,0.000000000000000e+00
	5.449381660296681e-05,2.763872594650908e-14
	5.449381656521475e-05,2.509243140763295e-14
	-4.622175481512226e-07,-2.128869039502920e-14
	3.797039879698384e-05,2.004367511111537e-12
	-2.906336885927007e-05,-1.357169212943517e-14
	-8.444812389562557e-06,-1.969507128587073e-12
	4.622175481512175e-07,2.128869039502920e-14
	-3.797039879696595e-05,-2.004367511111537e-12
	4.622175481512175e-07,2.128869039502920e-14
18		1.513561248436208e+00,0.000000000000000e+00
	4.622175481512175e-03,2.178456769606798e-10
	1.000000000000000e+00,0.000000000000000e+00
	0.000000000000000e+00,0.000000000000000e+00
	5.449381660296681e-05,2.828251457663099e-14
	5.449381656521475e-05,2.567690921871629e-14
	-4.622175481512226e-07,-2.178456769606784e-14
	3.797039879698384e-05,2.051055228075652e-12
	-2.906336885927007e-05,-1.388781744944288e-14
	-8.444812389562557e-06,-2.015382842930142e-12
	4.622175481512175e-07,2.178456769606798e-14
	-3.797039879696595e-05,-2.051055228075653e-12
	4.622175481512175e-07,2.178456769606798e-14
19		1.548816618912481e+00,0.000000000000000e+00
	4.622175481512175e-03,2.229199546325205e-10
	1.000000000000000e+00,0.000000000000000e+00
	0.000000000000000e+00,0.000000000000000e+00
	5.449381660296681e-05,2.894129897034478e-14
	5.449381656521475e-05,2.627500126694148e-14
	-4.622175481512226e-07,-2.229199546325204e-14
	3.797039879698384e-05,2.098830441670619e-12
	-2.906336885927007e-05,-1.421130627408927e-14
	-8.444812389562557e-06,-2.062327139933278e-12
	4.622175481512175e-07,2.229199546325205e-14
	-3.797039879696595e-05,-2.098830441670620e-12
	4.622175481512175e-07,2.229199546325205e-14
20		1.584893192461113e+00,0.000000000000000e+00
	4.622175481512175e-03,2.281124274150019e-10
	1.000000000000000e+00,0.000000000000000e+00
	0.000000000000000e+00,0.000000000000000e+00
	5.449381660296681e-05,2.961542842385602e-14
	5.449381656521475e-05,2.688702466862915e-14
	-4.622175481512226e-07,-2.281124274150032e-14
	3.797039879698384e-05,2.147718482947065e-12
	-2.906336885927007e-05,-1.454233012143107e-14
	-8.444812389562557e-06,-2.110364910084133e-12
	4.622175481512175e-07,2.281124274150019e-14
	-3.797039879696595e-05,-2.147718482947065e-12
	4.622175481512175e-07,2.281124274150019e-14
21		1.621810097358929e+00,0.000000000000000e+00
	4.622175481512175e-03,2.334258484259236e-10
	1.000000000000000e+00,0.000000000000000e+00
	0.000000000000000e+00,0.000000000000000e+00
	5.449381660296681e-05,3.030526036952412e-14
	5.449381656521475e-05,2.751330392668797e-14
	-4.622175481512226e-07,-2.334258484259207e-14
	3.797039879698384e-05,2.197745272991584e-12
	-2.906336885927007e-05,-1.488106450469374e-14
	-8.444812389562557e-06,-2.159521623644298e-12
	4.622175481512175e-07,2.334258484259236e-14
	-3.797039879696595e-05,-2.197745272991584e-12
	4.622175481512175e-07,2.334258484259236e-14
22		1.659586907437560e+00,0.000000000000000e+00
	4.622175481512175e-03,2.388630349114371e-10
	1.000000000000000e+00,0.000000000000000e+00
	0.000000000000000e+00,0.000000000000000e+00
	5.449381660296681e-05,3.101116056537769e-14
	5.449381656521475e-05,2.815417110267036e-14
	-4.622175481512226e-07,-2.388630349114354e-14
	3.797039879698384e-05,2.248937336670440e-12
	-2.906336885927007e-05,-1.522768902533098e-14
	-8.444812389562557e-06,-2.209823344153966e-12
	4.622175481512175e-07,2.388630349114372e-14
	-3.797039879696595e-05,-2.248937336670440e-12
	4.622175481512175e-07,2.388630349114372e-14
23		1.698243652461743e+00,0.000000000000000e+00
	4.622175481512175e-03,2.444268697397867e-10
	1.000000000000000e+00,0.000000000000000e+00
	0.000000000000000e+00,0.000000000000000e+00
	5.449381660296681e-05,3.173350328904427e-14
	5.449381656521475e-05,2.880996599283589e-14
	-4.622175481512226e-07,-2.444268697397854e-14
	3.797039879698384e-05,2.301321816693404e-12
	-2.906336885927007e-05,-1.558238746825174e-14
	-8.444812389562557e-06,-2.261296742251174e-12
	4.622175481512175e-07,2.444268697397868e-14
	-3.797039879696595e-05,-2.301321816693405e-12
	4.622175481512175e-07,2.444268697397868e-14
24		1.737800828749374e+00,0.000000000000000e+00
	4.622175481512175e-03,2.501203029298444e-10
	1.000000000000000e+00,0.000000000000000e+00
	0.000000000000000e+00,0.000000000000000e+00
	5.449381660296681e-05,3.247267153619725e-14
	5.449381656521475e-05,2.948103630831580e-14
	-4.622175481512226e-07,-2.501203029298442e-14
	3.797039879698384e-05,2.354926488005175e-12
	-2.906336885927007e-05,-1.594534789926544e-14
	-8.444812389562557e-06,-2.313969109812925e-12
	4.622175481512175e-07,2.501203029298444e-14
	-3.797039879696595e-05,-2.354926488005175e-12
	4.622175481512175e-07,2.501203029298444e-14
25		1.778279410038922e+00,0.000000000000000e+00
	4.622175481512175e-03,2.559463532152492e-10
	1.000000000000000e+00,0.000000000000000e+00
	0.000000000000000e+00,0.000000000000000e+00
	5.449381660296681e-05,3.322905722362536e-14
	5.449381656521475e-05,3.016773785947403e-14
	-4.622175481512226e-07,-2.559463532152509e-14
	3.797039879698384e-05,2.409779772512023e-12
	-2.906336885927007e-05,-1.631676276479697e-14
	-8.444812389562557e-06,-2.367868374425701e-12
	4.622175481512175e-07,2.559463532152492e-14
	-3.797039879696595e-05,-2.409779772512023e-12
	4.622175481512175e-07,2.559463532152492e-14
26		1.819700858609982e+00,0.000000000000000e+00
	4.622175481512175e-03,2.619081096449791e-10
	1.000000000000000e+00,0.000000000000000e+00
	0.000000000000000e+00,0.000000000000000e+00
	5.449381660296681e-05,3.400306139703199e-14
	5.449381656521475e-05,3.087043474456257e-14
	-4.622175481512226e-07,-2.619081096449790e-14
	3.797039879698384e-05,2.465910754151462e-12
	-2.906336885927007e-05,-1.669682899392428e-14
	-8.444812389562557e-06,-2.423023114193040e-12
	4.622175481512175e-07,2.619081096449791e-14
	-3.797039879696595e-05,-2.465910754151463e-12
	4.622175481512175e-07,2.619081096449791e-14
27		1.862087136662866e+00,0.000000000000000e+00
	4.622175481512175e-03,2.680087332212066e-10
	1.000000000000000e+00,0.000000000000000e+00
	0.000000000000000e+00,0.000000000000000e+00
	5.449381660296681e-05,3.479509444367508e-14
	5.449381656521475e-05,3.158949954277120e-14
	-4.622175481512226e-07,-2.680087332212062e-14
	3.797039879698384e-05,2.523349194312941e-12
	-2.906336885927007e-05,-1.708574810279283e-14
	-8.444812389562557e-06,-2.479462572888028e-12
	4.622175481512175e-07,2.680087332212066e-14
	-3.797039879696595e-05,-2.523349194312942e-12
	4.622175481512175e-07,2.680087332212066e-14
28		1.905460717963246e+00,0.000000000000000e+00
	4.622175481512175e-03,2.742514585753027e-10
	1.000000000000000e+00,0.000000000000000e+00
	0.000000000000000e+00,0.000000000000000e+00
	5.449381660296681e-05,3.560557630995970e-14
	5.449381656521475e-05,3.232531351177384e-14
	-4.622175481512226e-07,-2.742514585753083e-14
	3.797039879698384e-05,2.582125547617720e-12
	-2.906336885927007e-05,-1.748372630146209e-14
	-8.444812389562557e-06,-2.537216675458727e-12
	4.622175481512175e-07,2.742514585753027e-14
	-3.797039879696595e-05,-2.582125547617720e-12
	4.622175481512175e-07,2.742514585753027e-14
29		1.949844599758044e+00,0.000000000000000e+00
	4.622175481512175e-03,2.806395956828829e-10
	1.000000000000000e+00,0.000000000000000e+00
	0.000000000000000e+00,0.000000000000000e+00
	5.449381660296681e-05,3.643493672409940e-14
	5.449381656521475e-05,3.307826678987655e-14
	-4.622175481512226e-07,-2.806395956828819e-14
	3.797039879698384e-05,2.642270978066317e-12
	-2.906336885927007e-05,-1.789097460324087e-14
	-8.444812389562557e-06,-2.596316043894788e-12
	4.622175481512175e-07,2.806395956828829e-14
	-3.797039879696595e-05,-2.642270978066317e-12
	4.622175481512175e-07,2.806395956828829e-14
30		1.995262314968878e+00,0.000000000000000e+00
	4.622175481512175e-03,2.871765316187982e-10
	1.000000000000000e+00,0.000000000000000e+00
	0.000000000000000e+00,0.000000000000000e+00
	5.449381660296681e-05,3.728361542396361e-14
	5.449381656521475e-05,3.384875860287388e-14
	-4.622175481512226e-07,-2.871765316187968e-14
	3.797039879698384e-05,2.703817375562076e-12
	-2.906336885927007e-05,-1.830770893656932e-14
	-8.444812389562557e-06,-2.656792013463627e-12
	4.622175481512175e-07,2.871765316187983e-14
	-3.797039879696595e-05,-2.703817375562077e-12
	4.622175481512175e-07,2.871765316187983e-14
31		2.041737944669527e+00,0.000000000000000e+00
	4.622175481512175e-03,2.938657323530086e-10
	1.000000000000000e+00,0.000000000000000e+00
	0.000000000000000e+00,0.000000000000000e+00
	5.449381660296681e-05,3.815206239023260e-14
	5.449381656521475e-05,3.463719747572372e-14
	-4.622175481512226e-07,-2.938657323530062e-14
	3.797039879698384e-05,2.766797372819612e-12
	-2.906336885927007e-05,-1.873415025950713e-14
	-8.444812389562557e-06,-2.718676649324804e-12
	4.622175481512175e-07,2.938657323530086e-14
	-3.797039879696595e-05,-2.766797372819612e-12
	4.622175481512175e-07,2.938657323530086e-14
32		2.089296130854037e+00,0.000000000000000e+00
	4.622175481512175e-03,3.007107445882854e-10
	1.000000000000000e+00,0.000000000000000e+00
	0.000000000000000e+00,0.000000000000000e+00
	5.449381660296681e-05,3.904073808498312e-14
	5.449381656521475e-05,3.544400144915270e-14
	-4.622175481512226e-07,-3.007107445882850e-14
	3.797039879698384e-05,2.831244362667111e-12
	-2.906336885927007e-05,-1.917052467688831e-14
	-8.444812389562557e-06,-2.782002763531394e-12
	4.622175481512175e-07,3.007107445882855e-14
	-3.797039879696595e-05,-2.831244362667111e-12
	4.622175481512175e-07,3.007107445882855e-14
33		2.137962089502230e+00,0.000000000000000e+00
	4.622175481512175e-03,3.077151976407202e-10
	1.000000000000000e+00,0.000000000000000e+00
	0.000000000000000e+00,0.000000000000000e+00
	5.449381660296681e-05,3.995011369583158e-14
	5.449381656521475e-05,3.626959830130685e-14
	-4.622175481512226e-07,-3.077151976407168e-14
	3.797039879698384e-05,2.897192515751644e-12
	-2.906336885927007e-05,-1.961706356020507e-14
	-8.444812389562557e-06,-2.846803932427367e-12
	4.622175481512175e-07,3.077151976407202e-14
	-3.797039879696595e-05,-2.897192515751645e-12
	4.622175481512175e-07,3.077151976407202e-14
34		2.187761623949550e+00,0.000000000000000e+00
	4.622175481512175e-03,3.148828053640361e-10
	1.000000000000000e+00,0.000000000000000e+00
	0.000000000000000e+00,0.000000000000000e+00
	5.449381660296681e-05,4.088067138576384e-14
	5.449381656521475e-05,3.711442577456525e-14
	-4.622175481512226e-07,-3.148828053640356e-14
	3.797039879698384e-05,2.964676798656905e-12
	-2.906336885927007e-05,-2.007400367028400e-14
	-8.444812389562557e-06,-2.913114514450218e-12
	4.622175481512175e-07,3.148828053640361e-14
	-3.797039879696595e-05,-2.964676798656906e-12
	4.622175481512175e-07,3.148828053640361e-14
35		2.238721138568337e+00,0.000000000000000e+00
	4.622175481512175e-03,3.222173681187228e-10
	1.000000000000000e+00,0.000000000000000e+00
	0.000000000000000e+00,0.000000000000000e+00
	5.449381660296681e-05,4.183290454878449e-14
	5.449381656521475e-05,3.797893180763683e-14
	-4.622175481512226e-07,-3.222173681187240e-14
	3.797039879698384e-05,3.033732992442951e-12
	-2.906336885927007e-05,-2.054158728281975e-14
	-8.444812389562557e-06,-2.980969668348259e-12
	4.622175481512175e-07,3.222173681187228e-14
	-3.797039879696595e-05,-3.033732992442952e-12
	4.622175481512175e-07,3.222173681187228e-14
36		2.290867652767770e+00,0.000000000000000e+00
	4.622175481512175e-03,3.297227747870372e-10
	1.000000000000000e+00,0.000000000000000e+00
	0.000000000000000e+00,0.000000000000000e+00
	5.449381660296681e-05,4.280731807152084e-14
	5.449381656521475e-05,3.886357477306339e-14
	-4.622175481512226e-07,-3.297227747870377e-14
	3.797039879698384e-05,3.104397711617794e-12
	-2.906336885927007e-05,-2.102006231683291e-14
	-8.444812389562557e-06,-3.050405371822258e-12
	4.622175481512175e-07,3.297227747870372e-14
	-3.797039879696595e-05,-3.104397711617795e-12
	4.622175481512175e-07,3.297227747870372e-14
37		2.344228815319919e+00,0.000000000000000e+00
	4.622175481512175e-03,3.374030048349404e-10
	1.000000000000000e+00,0.000000000000000e+00
	0.000000000000000e+00,0.000000000000000e+00
	5.449381660296681e-05,4.380442860092057e-14
	5.449381656521475e-05,3.976882372025487e-14
	-4.622175481512226e-07,-3.374030048349412e-14
	3.797039879698384e-05,3.176708423550898e-12
	-2.906336885927007e-05,-2.150968246611987e-14
	-8.444812389562557e-06,-3.121458440601284e-12
	4.622175481512175e-07,3.374030048349404e-14
	-3.797039879696595e-05,-3.176708423550899e-12
	4.622175481512175e-07,3.374030048349404e-14
38		2.398832919019488e+00,0.000000000000000e+00
	4.622175481512175e-03,3.452621304220639e-10
	1.000000000000000e+00,0.000000000000000e+00
	0.000000000000000e+00,0.000000000000000e+00
	5.449381660296681e-05,4.482476481818465e-14
	5.449381656521475e-05,4.069515862418543e-14
	-4.622175481512226e-07,-3.452621304220668e-14
	3.797039879698384e-05,3.250703468338876e-12
	-2.906336885927007e-05,-2.201070733376466e-14
	-8.444812389562557e-06,-3.194166547962905e-12
	4.622175481512175e-07,3.452621304220639e-14
	-3.797039879696595e-05,-3.250703468338876e-12
	4.622175481512175e-07,3.452621304220639e-14
39		2.454708915685027e+00,0.000000000000000e+00
	4.622175481512175e-03,3.533043185608218e-10
	1.000000000000000e+00,0.000000000000000e+00
	0.000000000000000e+00,0.000000000000000e+00
	5.449381660296681e-05,4.586886771908124e-14
	5.449381656521475e-05,4.164307063988265e-14
	-4.622175481512226e-07,-3.533043185608252e-14
	3.797039879698384e-05,3.326422079133914e-12
	-2.906336885927007e-05,-2.252340256978398e-14
	-8.444812389562557e-06,-3.268568244708048e-12
	4.622175481512175e-07,3.533043185608218e-14
	-3.797039879696595e-05,-3.326422079133915e-12
	4.622175481512175e-07,3.533043185608218e-14
40		2.511886431509577e+00,0.000000000000000e+00
	4.622175481512175e-03,3.615338333258160e-10
	1.000000000000000e+00,0.000000000000000e+00
	0.000000000000000e+00,0.000000000000000e+00
	5.449381660296681e-05,4.693729090078874e-14
	5.449381656521475e-05,4.261306236284434e-14
	-4.622175481512226e-07,-3.615338333258182e-14
	3.797039879698384e-05,3.403904402945710e-12
	-2.906336885927007e-05,-2.304804001197828e-14
	-8.444812389562557e-06,-3.344702979601150e-12
	4.622175481512175e-07,3.615338333258160e-14
	-3.797039879696595e-05,-3.403904402945711e-12
	4.622175481512175e-07,3.615338333258160e-14
41		2.570395782768860e+00,0.000000000000000e+00
	4.622175481512175e-03,3.699550381147057e-10
	1.000000000000000e+00,0.000000000000000e+00
	0.000000000000000e+00,0.000000000000000e+00
	5.449381660296681e-05,4.803060085542031e-14
	5.449381656521475e-05,4.360564809552135e-14
	-4.622175481512226e-07,-3.699550381147072e-14
	3.797039879698384e-05,3.483191521927949e-12
	-2.906336885927007e-05,-2.358489783006380e-14
	-8.444812389562557e-06,-3.422611120286414e-12
	4.622175481512175e-07,3.699550381147057e-14
	-3.797039879696595e-05,-3.483191521927950e-12
	4.622175481512175e-07,3.699550381147057e-14
42		2.630267991895378e+00,0.000000000000000e+00
	4.622175481512175e-03,3.785723979617376e-10
	1.000000000000000e+00,0.000000000000000e+00
	0.000000000000000e+00,0.000000000000000e+00
	5.449381660296681e-05,4.914937727038561e-14
	5.449381656521475e-05,4.462135412000762e-14
	-4.622175481512226e-07,-3.785723979617363e-14
	3.797039879698384e-05,3.564325475160605e-12
	-2.906336885927007e-05,-2.413426067316185e-14
	-8.444812389562557e-06,-3.502333974691269e-12
	4.622175481512175e-07,3.785723979617377e-14
	-3.797039879696595e-05,-3.564325475160605e-12
	4.622175481512175e-07,3.785723979617377e-14
43		2.691534803926912e+00,0.000000000000000e+00
	4.622175481512175e-03,3.873904819051670e-10
	1.000000000000000e+00,0.000000000000000e+00
	0.000000000000000e+00,0.000000000000000e+00
	5.449381660296681e-05,5.029421333574856e-14
	5.449381656521475e-05,4.566071897708176e-14
	-4.622175481512226e-07,-3.873904819051671e-14
	3.797039879698384e-05,3.647349280939616e-12
	-2.906336885927007e-05,-2.469641982072352e-14
	-8.444812389562557e-06,-3.583913812928376e-12
	4.622175481512175e-07,3.873904819051670e-14
	-3.797039879696595e-05,-3.647349280939618e-12
	4.622175481512175e-07,3.873904819051670e-14
44		2.754228703338163e+00,0.000000000000000e+00
	4.622175481512175e-03,3.964139654098216e-10
	1.000000000000000e+00,0.000000000000000e+00
	0.000000000000000e+00,0.000000000000000e+00
	5.449381660296681e-05,5.146571605874476e-14
	5.449381656521475e-05,4.672429375174860e-14
	-4.622175481512226e-07,-3.964139654098192e-14
	3.797039879698384e-05,3.732306959585757e-12
	-2.906336885927007e-05,-2.527167333696990e-14
	-8.444812389562557e-06,-3.667393889707804e-12
	4.622175481512175e-07,3.964139654098216e-14
	-3.797039879696595e-05,-3.732306959585758e-12
	4.622175481512175e-07,3.964139654098216e-14
45		2.818382931264450e+00,0.000000000000000e+00
	4.622175481512175e-03,4.056476328460958e-10
	1.000000000000000e+00,0.000000000000000e+00
	0.000000000000000e+00,0.000000000000000e+00
	5.449381660296681e-05,5.266450658562458e-14
	5.449381656521475e-05,4.781264236543177e-14
	-4.622175481512226e-07,-4.056476328460939e-14
	3.797039879698384e-05,3.819243556784793e-12
	-2.906336885927007e-05,-2.586032622892968e-14
	-8.444812389562557e-06,-3.752818467271253e-12
	4.622175481512175e-07,4.056476328460959e-14
	-3.797039879696595e-05,-3.819243556784794e-12
	4.622175481512175e-07,4.056476328460959e-14
46		2.884031503126602e+00,0.000000000000000e+00
	4.622175481512175e-03,4.150963800266859e-10
	1.000000000000000e+00,0.000000000000000e+00
	0.000000000000000e+00,0.000000000000000e+00
	5.449381660296681e-05,5.389122053099325e-14
	5.449381656521475e-05,4.892634187497221e-14
	-4.622175481512226e-07,-4.150963800266862e-14
	3.797039879698384e-05,3.908205167471301e-12
	-2.906336885927007e-05,-2.646269060815791e-14
	-8.444812389562557e-06,-3.840232838860474e-12
	4.622175481512175e-07,4.150963800266860e-14
	-3.797039879696595e-05,-3.908205167471301e-12
	4.622175481512175e-07,4.150963800266860e-14
47		2.951209226666381e+00,0.000000000000000e+00
	4.622175481512175e-03,4.247652168024165e-10
	1.000000000000000e+00,0.000000000000000e+00
	0.000000000000000e+00,0.000000000000000e+00
	5.449381660296681e-05,5.514650831482210e-14
	5.449381656521475e-05,5.006598277859149e-14
	-4.622175481512226e-07,-4.247652168024233e-14
	3.797039879698384e-05,3.999238960268812e-12
	-2.906336885927007e-05,-2.707908585622172e-14
	-8.444812389562557e-06,-3.929683352732349e-12
	4.622175481512175e-07,4.247652168024166e-14
	-3.797039879696595e-05,-3.999238960268813e-12
	4.622175481512175e-07,4.247652168024166e-14
48		3.019951720402012e+00,0.000000000000000e+00
	4.622175481512175e-03,4.346592697185282e-10
	1.000000000000000e+00,0.000000000000000e+00
	0.000000000000000e+00,0.000000000000000e+00
	5.449381660296681e-05,5.643103550730979e-14
	5.449381656521475e-05,5.123216932898159e-14
	-4.622175481512226e-07,-4.346592697185286e-14
	3.797039879698384e-05,4.092393202499245e-12
	-2.906336885927007e-05,-2.770983879404057e-14
	-8.444812389562557e-06,-4.021217436733352e-12
	4.622175481512175e-07,4.346592697185282e-14
	-3.797039879696595e-05,-4.092393202499246e-12
	4.622175481512175e-07,4.346592697185282e-14
49		3.090295432513586e+00,0.000000000000000e+00
	4.622175481512175e-03,4.447837847328400e-10
	1.000000000000000e+00,0.000000000000000e+00
	0.000000000000000e+00,0.000000000000000e+00