Title: * GA CMOS Amp | W=1.7565518262220435e-06 L=5.531818883953986e-07 Vbias=0.8435772629573892
Date: Mon Sep  8 18:47:03 2025
Plotname: AC Analysis
Flags: complex forward log
No. Variables: 11
No. Points:          901
Offset:    0.0000000000000000e+00
Command: Linear Technology Corporation LTspice
Variables:
	0	frequency	frequency
	1	V(out)	voltage
	2	V(g)	voltage
	3	V(vdd)	voltage
	4	Id(M1)	device_current
	5	Ig(M1)	device_current
	6	Ib(M1)	device_current
	7	Is(M1)	device_current
	8	I(Rload)	device_current
	9	I(Vg)	device_current
	10	I(Vdd)	device_current
Values:
0		1.000000000000000e+00,0.000000000000000e+00
	-1.488064272067526e-01,2.531638121306558e-11
	1.000000000000000e+00,0.000000000000000e+00
	0.000000000000000e+00,0.000000000000000e+00
	1.488064272067526e-05,-2.531638121306558e-15
	5.588206660658636e-26,9.628091151072039e-15
	1.488064263011155e-13,-3.981690880851045e-16
	-1.488064286948169e-05,-6.698283941680376e-15
	-1.488064272067526e-05,2.531638121306558e-15
	-5.588206660658636e-26,-9.628091151072039e-15
	-1.488064272067526e-05,2.531638121306558e-15
1		1.023292992280754e+00,0.000000000000000e+00
	-1.488064272067526e-01,2.590607548523815e-11
	1.000000000000000e+00,0.000000000000000e+00
	0.000000000000000e+00,0.000000000000000e+00
	1.488064272067526e-05,-2.590607548523815e-15
	5.851570726783844e-26,9.852358203932357e-15
	1.488064263011155e-13,-4.074436375803052e-16
	-1.488064286948169e-05,-6.854307017828236e-15
	-1.488064272067526e-05,2.590607548523815e-15
	-5.851570726783844e-26,-9.852358203932357e-15
	-1.488064272067526e-05,2.590607548523815e-15
2		1.047128548050899e+00,0.000000000000000e+00
	-1.488064272067526e-01,2.650950550154043e-11
	1.000000000000000e+00,0.000000000000000e+00
	0.000000000000000e+00,0.000000000000000e+00
	1.488064272067526e-05,-2.650950550154043e-15
	6.127346758954311e-26,1.008184910752378e-14
	1.488064263011155e-13,-4.169342190853058e-16
	-1.488064286948169e-05,-7.013964338284427e-15
	-1.488064272067526e-05,2.650950550154043e-15
	-6.127346758954311e-26,-1.008184910752378e-14
	-1.488064272067526e-05,2.650950550154043e-15
3		1.071519305237606e+00,0.000000000000000e+00
	-1.488064272067526e-01,2.712699120855442e-11
	1.000000000000000e+00,0.000000000000000e+00
	0.000000000000000e+00,0.000000000000000e+00
	1.488064272067526e-05,-2.712699120855442e-15
	6.416119715108212e-26,1.031668554096105e-14
	1.488064263011155e-13,-4.266458646320428e-16
	-1.488064286948169e-05,-7.177340555473570e-15
	-1.488064272067526e-05,2.712699120855442e-15
	-6.416119715108212e-26,-1.031668554096105e-14
	-1.488064272067526e-05,2.712699120855442e-15
4		1.096478196143185e+00,0.000000000000000e+00
	-1.488064272067526e-01,2.775886000537535e-11
	1.000000000000000e+00,0.000000000000000e+00
	0.000000000000000e+00,0.000000000000000e+00
	1.488064272067526e-05,-2.775886000537536e-15
	6.718502121402010e-26,1.055699201762962e-14
	1.488064263011155e-13,-4.365837234635291e-16
	-1.488064286948169e-05,-7.344522293628560e-15
	-1.488064272067526e-05,2.775886000537536e-15
	-6.718502121402010e-26,-1.055699201762962e-14
	-1.488064272067526e-05,2.775886000537536e-15
5		1.122018454301963e+00,0.000000000000000e+00
	-1.488064272067526e-01,2.840544691720310e-11
	1.000000000000000e+00,0.000000000000000e+00
	0.000000000000000e+00,0.000000000000000e+00
	1.488064272067526e-05,-2.840544691720310e-15
	7.035135371460578e-26,1.080289595120426e-14
	1.488064263011155e-13,-4.467530647640713e-16
	-1.488064286948169e-05,-7.515598194719876e-15
	-1.488064272067526e-05,2.840544691720310e-15
	-7.035135371460578e-26,-1.080289595120426e-14
	-1.488064272067526e-05,2.840544691720310e-15
6		1.148153621496882e+00,0.000000000000000e+00
	-1.488064272067526e-01,2.906709477297688e-11
	1.000000000000000e+00,0.000000000000000e+00
	0.000000000000000e+00,0.000000000000000e+00
	1.488064272067526e-05,-2.906709477297688e-15
	7.366691086859038e-26,1.105452772320545e-14
	1.488064263011155e-13,-4.571592804530233e-16
	-1.488064286948169e-05,-7.690658965454736e-15
	-1.488064272067526e-05,2.906709477297688e-15
	-7.366691086859038e-26,-1.105452772320545e-14
	-1.488064272067526e-05,2.906709477297688e-15
7		1.174897554939529e+00,0.000000000000000e+00
	-1.488064272067526e-01,2.974415438714778e-11
	1.000000000000000e+00,0.000000000000000e+00
	0.000000000000000e+00,0.000000000000000e+00
	1.488064272067526e-05,-2.974415438714778e-15
	7.713872541722207e-26,1.131202075212945e-14
	1.488064263011155e-13,-4.678078880436896e-16
	-1.488064286948169e-05,-7.869797425370985e-15
	-1.488064272067526e-05,2.974415438714778e-15
	-7.713872541722207e-26,-1.131202075212945e-14
	-1.488064272067526e-05,2.974415438714778e-15
8		1.202264434617413e+00,0.000000000000000e+00
	-1.488064272067526e-01,3.043698474568517e-11
	1.000000000000000e+00,0.000000000000000e+00
	0.000000000000000e+00,0.000000000000000e+00
	1.488064272067526e-05,-3.043698474568518e-15
	8.077416154463280e-26,1.157551156418854e-14
	1.488064263011155e-13,-4.787045335687685e-16
	-1.488064286948169e-05,-8.053108556051249e-15
	-1.488064272067526e-05,3.043698474568518e-15
	-8.077416154463280e-26,-1.157551156418854e-14
	-1.488064272067526e-05,3.043698474568518e-15
9		1.230268770812381e+00,0.000000000000000e+00
	-1.488064272067526e-01,3.114595319641585e-11
	1.000000000000000e+00,0.000000000000000e+00
	0.000000000000000e+00,0.000000000000000e+00
	1.488064272067526e-05,-3.114595319641585e-15
	8.458093049826014e-26,1.184513986569896e-14
	1.488064263011155e-13,-4.898549945739478e-16
	-1.488064286948169e-05,-8.240689551483426e-15
	-1.488064272067526e-05,3.114595319641586e-15
	-8.458093049826014e-26,-1.184513986569896e-14
	-1.488064272067526e-05,3.114595319641586e-15
10		1.258925411794167e+00,0.000000000000000e+00
	-1.488064272067526e-01,3.187143564379669e-11
	1.000000000000000e+00,0.000000000000000e+00
	0.000000000000000e+00,0.000000000000000e+00
	1.488064272067526e-05,-3.187143564379670e-15
	8.856710694543717e-26,1.212104861715514e-14
	1.488064263011155e-13,-5.012651831812469e-16
	-1.488064286948169e-05,-8.432639869594222e-15
	-1.488064272067526e-05,3.187143564379669e-15
	-8.856710694543717e-26,-1.212104861715514e-14
	-1.488064272067526e-05,3.187143564379669e-15
11		1.288249551693134e+00,0.000000000000000e+00
	-1.488064272067526e-01,3.261381674822420e-11
	1.000000000000000e+00,0.000000000000000e+00
	0.000000000000000e+00,0.000000000000000e+00
	1.488064272067526e-05,-3.261381674822421e-15
	9.274114610084440e-26,1.240338410902918e-14
	1.488064263011155e-13,-5.129411492236976e-16
	-1.488064286948169e-05,-8.629061284983061e-15
	-1.488064272067526e-05,3.261381674822421e-15
	-9.274114610084440e-26,-1.240338410902918e-14
	-1.488064272067526e-05,3.261381674822421e-15
12		1.318256738556407e+00,0.000000000000000e+00
	-1.488064272067526e-01,3.337349012998652e-11
	1.000000000000000e+00,0.000000000000000e+00
	0.000000000000000e+00,0.000000000000000e+00
	1.488064272067526e-05,-3.337349012998652e-15
	9.711190166115350e-26,1.269229603933602e-14
	1.488064263011155e-13,-5.248890834530468e-16
	-1.488064286948169e-05,-8.830057942884326e-15
	-1.488064272067526e-05,3.337349012998652e-15
	-9.711190166115350e-26,-1.269229603933602e-14
	-1.488064272067526e-05,3.337349012998652e-15
13		1.348962882591653e+00,0.000000000000000e+00
	-1.488064272067526e-01,3.415085857796612e-11
	1.000000000000000e+00,0.000000000000000e+00
	0.000000000000000e+00,0.000000000000000e+00
	1.488064272067526e-05,-3.415085857796612e-15
	1.016886445849054e-25,1.298793759300533e-14
	1.488064263011155e-13,-5.371153208221725e-16
	-1.488064286948169e-05,-9.035736414386541e-15
	-1.488064272067526e-05,3.415085857796612e-15
	-1.016886445849054e-25,-1.298793759300533e-14
	-1.488064272067526e-05,3.415085857796612e-15
14		1.380384264602885e+00,0.000000000000000e+00
	-1.488064272067526e-01,3.494633426320381e-11
	1.000000000000000e+00,0.000000000000000e+00
	0.000000000000000e+00,0.000000000000000e+00
	1.488064272067526e-05,-3.494633426320382e-15
	1.064810827574560e-25,1.329046552310212e-14
	1.488064263011155e-13,-5.496263438439576e-16
	-1.488064286948169e-05,-9.246205752937776e-15
	-1.488064272067526e-05,3.494633426320382e-15
	-1.064810827574560e-25,-1.329046552310212e-14
	-1.488064272067526e-05,3.494633426320382e-15
15		1.412537544622754e+00,0.000000000000000e+00
	-1.488064272067526e-01,3.576033895743728e-11
	1.000000000000000e+00,0.000000000000000e+00
	0.000000000000000e+00,0.000000000000000e+00
	1.488064272067526e-05,-3.576033895743728e-15
	1.114993815827026e-25,1.360004023393936e-14
	1.488064263011155e-13,-5.624287860284129e-16
	-1.488064286948169e-05,-9.461577552167222e-15
	-1.488064272067526e-05,3.576033895743728e-15
	-1.114993815827026e-25,-1.360004023393936e-14
	-1.488064272067526e-05,3.576033895743728e-15
16		1.445439770745927e+00,0.000000000000000e+00
	-1.488064272067526e-01,3.659330425673001e-11
	1.000000000000000e+00,0.000000000000000e+00
	0.000000000000000e+00,0.000000000000000e+00
	1.488064272067526e-05,-3.659330425673000e-15
	1.167541855452685e-25,1.391682586612645e-14
	1.488064263011155e-13,-5.755294353998478e-16
	-1.488064286948169e-05,-9.681966005053606e-15
	-1.488064272067526e-05,3.659330425673001e-15
	-1.167541855452685e-25,-1.391682586612645e-14
	-1.488064272067526e-05,3.659330425673001e-15
17		1.479108388168207e+00,0.000000000000000e+00
	-1.488064272067526e-01,3.744567181030930e-11
	1.000000000000000e+00,0.000000000000000e+00
	0.000000000000000e+00,0.000000000000000e+00
	1.488064272067526e-05,-3.744567181030930e-15
	1.222566407888823e-25,1.424099038359874e-14
	1.488064263011155e-13,-5.889352380959632e-16
	-1.488064286948169e-05,-9.907487964471843e-15
	-1.488064272067526e-05,3.744567181030931e-15
	-1.222566407888823e-25,-1.424099038359874e-14
	-1.488064272067526e-05,3.744567181030931e-15
18		1.513561248436208e+00,0.000000000000000e+00
	-1.488064272067526e-01,3.831789355473449e-11
	1.000000000000000e+00,0.000000000000000e+00
	0.000000000000000e+00,0.000000000000000e+00
	1.488064272067526e-05,-3.831789355473449e-15
	1.280184187588427e-25,1.457270566267420e-14
	1.488064263011155e-13,-6.026533020507976e-16
	-1.488064286948169e-05,-1.013826300514995e-14
	-1.488064272067526e-05,3.831789355473449e-15
	-1.280184187588427e-25,-1.457270566267420e-14
	-1.488064272067526e-05,3.831789355473449e-15
19		1.548816618912481e+00,0.000000000000000e+00
	-1.488064272067526e-01,3.921043195351968e-11
	1.000000000000000e+00,0.000000000000000e+00
	0.000000000000000e+00,0.000000000000000e+00
	1.488064272067526e-05,-3.921043195351968e-15
	1.340517409587190e-25,1.491214758318457e-14
	1.488064263011155e-13,-6.166909007634359e-16
	-1.488064286948169e-05,-1.037441348706916e-14
	-1.488064272067526e-05,3.921043195351968e-15
	-1.340517409587190e-25,-1.491214758318457e-14
	-1.488064272067526e-05,3.921043195351968e-15
20		1.584893192461113e+00,0.000000000000000e+00
	-1.488064272067526e-01,4.012376024233804e-11
	1.000000000000000e+00,0.000000000000000e+00
	0.000000000000000e+00,0.000000000000000e+00
	1.488064272067526e-05,-4.012376024233805e-15
	1.403694048737987e-25,1.525949612172915e-14
	1.488064263011155e-13,-6.310554771545311e-16
	-1.488064286948169e-05,-1.061606462034082e-14
	-1.488064272067526e-05,4.012376024233805e-15
	-1.403694048737987e-25,-1.525949612172915e-14
	-1.488064272067526e-05,4.012376024233805e-15
21		1.621810097358929e+00,0.000000000000000e+00
	-1.488064272067526e-01,4.105836267993765e-11
	1.000000000000000e+00,0.000000000000000e+00
	0.000000000000000e+00,0.000000000000000e+00
	1.488064272067526e-05,-4.105836267993765e-15
	1.469848111162697e-25,1.561493544710079e-14
	1.488064263011155e-13,-6.457546475126189e-16
	-1.488064286948169e-05,-1.086334453159440e-14
	-1.488064272067526e-05,4.105836267993765e-15
	-1.469848111162697e-25,-1.561493544710079e-14
	-1.488064272067526e-05,4.105836267993765e-15
22		1.659586907437560e+00,0.000000000000000e+00
	-1.488064272067526e-01,4.201473480490185e-11
	1.000000000000000e+00,0.000000000000000e+00
	0.000000000000000e+00,0.000000000000000e+00
	1.488064272067526e-05,-4.201473480490184e-15
	1.539119918497152e-25,1.597865401793458e-14
	1.488064263011155e-13,-6.607962055323911e-16
	-1.488064286948169e-05,-1.111638433191200e-14
	-1.488064272067526e-05,4.201473480490185e-15
	-1.539119918497152e-25,-1.597865401793458e-14
	-1.488064272067526e-05,4.201473480490185e-15
23		1.698243652461743e+00,0.000000000000000e+00
	-1.488064272067526e-01,4.299338369839036e-11
	1.000000000000000e+00,0.000000000000000e+00
	0.000000000000000e+00,0.000000000000000e+00
	1.488064272067526e-05,-4.299338369839036e-15
	1.611656405532142e-25,1.635084468263117e-14
	1.488064263011155e-13,-6.761881264470091e-16
	-1.488064286948169e-05,-1.137531818634513e-14
	-1.488064272067526e-05,4.299338369839036e-15
	-1.611656405532142e-25,-1.635084468263117e-14
	-1.488064272067526e-05,4.299338369839036e-15
24		1.737800828749374e+00,0.000000000000000e+00
	-1.488064272067526e-01,4.399482825300045e-11
	1.000000000000000e+00,0.000000000000000e+00
	0.000000000000000e+00,0.000000000000000e+00
	1.488064272067526e-05,-4.399482825300046e-15
	1.687611431881803e-25,1.673170478160750e-14
	1.488064263011155e-13,-6.919385712566738e-16
	-1.488064286948169e-05,-1.164028338505078e-14
	-1.488064272067526e-05,4.399482825300045e-15
	-1.687611431881803e-25,-1.673170478160750e-14
	-1.488064272067526e-05,4.399482825300045e-15
25		1.778279410038922e+00,0.000000000000000e+00
	-1.488064272067526e-01,4.501959944789070e-11
	1.000000000000000e+00,0.000000000000000e+00
	0.000000000000000e+00,0.000000000000000e+00
	1.488064272067526e-05,-4.501959944789071e-15
	1.767146108340492e-25,1.712143625192934e-14
	1.488064263011155e-13,-7.080558910557127e-16
	-1.488064286948169e-05,-1.191142041608456e-14
	-1.488064272067526e-05,4.501959944789070e-15
	-1.767146108340492e-25,-1.712143625192934e-14
	-1.488064272067526e-05,4.501959944789070e-15
26		1.819700858609982e+00,0.000000000000000e+00
	-1.488064272067526e-01,4.606824063031305e-11
	1.000000000000000e+00,0.000000000000000e+00
	0.000000000000000e+00,0.000000000000000e+00
	1.488064272067526e-05,-4.606824063031305e-15
	1.850429138620376e-25,1.752024573438096e-14
	1.488064263011155e-13,-7.245486314604172e-16
	-1.488064286948169e-05,-1.218887303988924e-14
	-1.488064272067526e-05,4.606824063031305e-15
	-1.850429138620376e-25,-1.752024573438096e-14
	-1.488064272067526e-05,4.606824063031305e-15
27		1.862087136662866e+00,0.000000000000000e+00
	-1.488064272067526e-01,4.714130780370286e-11
	1.000000000000000e+00,0.000000000000000e+00
	0.000000000000000e+00,0.000000000000000e+00
	1.488064272067526e-05,-4.714130780370286e-15
	1.937637177194631e-25,1.792834468302881e-14
	1.488064263011155e-13,-7.414255371400557e-16
	-1.488064286948169e-05,-1.247278836551847e-14
	-1.488064272067526e-05,4.714130780370286e-15
	-1.937637177194631e-25,-1.792834468302881e-14
	-1.488064272067526e-05,4.714130780370286e-15
28		1.905460717963246e+00,0.000000000000000e+00
	-1.488064272067526e-01,4.823936992247917e-11
	1.000000000000000e+00,0.000000000000000e+00
	0.000000000000000e+00,0.000000000000000e+00
	1.488064272067526e-05,-4.823936992247917e-15
	2.028955204005258e-25,1.834594947733730e-14
	1.488064263011155e-13,-7.586955564534118e-16
	-1.488064286948169e-05,-1.276331692863597e-14
	-1.488064272067526e-05,4.823936992247917e-15
	-2.028955204005258e-25,-1.834594947733730e-14
	-1.488064272067526e-05,4.823936992247917e-15
29		1.949844599758044e+00,0.000000000000000e+00
	-1.488064272067526e-01,4.936300919371192e-11
	1.000000000000000e+00,0.000000000000000e+00
	0.000000000000000e+00,0.000000000000000e+00
	1.488064272067526e-05,-4.936300919371193e-15
	2.124576916830343e-25,1.877328153689602e-14
	1.488064263011155e-13,-7.763678461933257e-16
	-1.488064286948169e-05,-1.306061277133150e-14
	-1.488064272067526e-05,4.936300919371193e-15
	-2.124576916830343e-25,-1.877328153689602e-14
	-1.488064272067526e-05,4.936300919371193e-15
30		1.995262314968878e+00,0.000000000000000e+00
	-1.488064272067526e-01,5.051282138581583e-11
	1.000000000000000e+00,0.000000000000000e+00
	0.000000000000000e+00,0.000000000000000e+00
	1.488064272067526e-05,-5.051282138581584e-15
	2.224705142143013e-25,1.921056743881936e-14
	1.488064263011155e-13,-7.944517764417307e-16
	-1.488064286948169e-05,-1.336483352379605e-14
	-1.488064272067526e-05,5.051282138581584e-15
	-2.224705142143013e-25,-1.921056743881936e-14
	-1.488064272067526e-05,5.051282138581584e-15
31		2.041737944669527e+00,0.000000000000000e+00
	-1.488064272067526e-01,5.168941614443475e-11
	1.000000000000000e+00,0.000000000000000e+00
	0.000000000000000e+00,0.000000000000000e+00
	1.488064272067526e-05,-5.168941614443475e-15
	2.329552265333582e-25,1.965803903788069e-14
	1.488064263011155e-13,-8.129569355378204e-16
	-1.488064286948169e-05,-1.367614048789939e-14
	-1.488064272067526e-05,5.168941614443475e-15
	-2.329552265333582e-25,-1.965803903788069e-14
	-1.488064272067526e-05,5.168941614443475e-15
32		2.089296130854037e+00,0.000000000000000e+00
	-1.488064272067526e-01,5.289341731568377e-11
	1.000000000000000e+00,0.000000000000000e+00
	0.000000000000000e+00,0.000000000000000e+00
	1.488064272067526e-05,-5.289341731568377e-15
	2.439340681207439e-25,2.011593358944480e-14
	1.488064263011155e-13,-8.318931351618865e-16
	-1.488064286948169e-05,-1.399469872271454e-14
	-1.488064272067526e-05,5.289341731568377e-15
	-2.439340681207439e-25,-2.011593358944480e-14
	-1.488064272067526e-05,5.289341731568377e-15
33		2.137962089502230e+00,0.000000000000000e+00
	-1.488064272067526e-01,5.412546327692068e-11
	1.000000000000000e+00,0.000000000000000e+00
	0.000000000000000e+00,0.000000000000000e+00
	1.488064272067526e-05,-5.412546327692068e-15
	2.554303265714237e-25,2.058449387526390e-14
	1.488064263011155e-13,-8.512704155376269e-16
	-1.488064286948169e-05,-1.432067713203421e-14
	-1.488064272067526e-05,5.412546327692069e-15
	-2.554303265714237e-25,-2.058449387526390e-14
	-1.488064272067526e-05,5.412546327692069e-15
34		2.187761623949550e+00,0.000000000000000e+00
	-1.488064272067526e-01,5.538620727522224e-11
	1.000000000000000e+00,0.000000000000000e+00
	0.000000000000000e+00,0.000000000000000e+00
	1.488064272067526e-05,-5.538620727522224e-15
	2.674683869909020e-25,2.106396833220366e-14
	1.488064263011155e-13,-8.710990507555801e-16
	-1.488064286948169e-05,-1.465424855392585e-14
	-1.488064272067526e-05,5.538620727522224e-15
	-2.674683869909020e-25,-2.106396833220366e-14
	-1.488064272067526e-05,5.538620727522224e-15
35		2.238721138568337e+00,0.000000000000000e+00
	-1.488064272067526e-01,5.667631777374424e-11
	1.000000000000000e+00,0.000000000000000e+00
	0.000000000000000e+00,0.000000000000000e+00
	1.488064272067526e-05,-5.667631777374425e-15
	2.800737837192993e-25,2.155461118396772e-14
	1.488064263011155e-13,-8.913895542205989e-16
	-1.488064286948169e-05,-1.499558985237270e-14
	-1.488064272067526e-05,5.667631777374424e-15
	-2.800737837192993e-25,-2.155461118396772e-14
	-1.488064272067526e-05,5.667631777374424e-15
36		2.290867652767770e+00,0.000000000000000e+00
	-1.488064272067526e-01,5.799647880614963e-11
	1.000000000000000e+00,0.000000000000000e+00
	0.000000000000000e+00,0.000000000000000e+00
	1.488064272067526e-05,-5.799647880614963e-15
	2.932732544931116e-25,2.205668257589054e-14
	1.488064263011155e-13,-9.121526842262047e-16
	-1.488064286948169e-05,-1.534488201104937e-14
	-1.488064272067526e-05,5.799647880614963e-15
	-2.932732544931116e-25,-2.205668257589054e-14
	-1.488064272067526e-05,5.799647880614963e-15
37		2.344228815319919e+00,0.000000000000000e+00
	-1.488064272067526e-01,5.934739033929219e-11
	1.000000000000000e+00,0.000000000000000e+00
	0.000000000000000e+00,0.000000000000000e+00
	1.488064272067526e-05,-5.934739033929219e-15
	3.070947971595338e-25,2.257044871286980e-14
	1.488064263011155e-13,-9.333994496587575e-16
	-1.488064286948169e-05,-1.570231022928183e-14
	-1.488064272067526e-05,5.934739033929220e-15
	-3.070947971595338e-25,-2.257044871286980e-14
	-1.488064272067526e-05,5.934739033929220e-15
38		2.398832919019488e+00,0.000000000000000e+00
	-1.488064272067526e-01,6.072976864434822e-11
	1.000000000000000e+00,0.000000000000000e+00
	0.000000000000000e+00,0.000000000000000e+00
	1.488064272067526e-05,-6.072976864434823e-15
	3.215677290636481e-25,2.309618200051184e-14
	1.488064263011155e-13,-9.551411158345136e-16
	-1.488064286948169e-05,-1.606806402024250e-14
	-1.488064272067526e-05,6.072976864434823e-15
	-3.215677290636481e-25,-2.309618200051184e-14
	-1.488064272067526e-05,6.072976864434823e-15
39		2.454708915685027e+00,0.000000000000000e+00
	-1.488064272067526e-01,6.214434667659301e-11
	1.000000000000000e+00,0.000000000000000e+00
	0.000000000000000e+00,0.000000000000000e+00
	1.488064272067526e-05,-6.214434667659302e-15
	3.367227492344428e-25,2.363416118956465e-14
	1.488064263011155e-13,-9.773892104726808e-16
	-1.488064286948169e-05,-1.644233731143267e-14
	-1.488064272067526e-05,6.214434667659301e-15
	-3.367227492344428e-25,-2.363416118956465e-14
	-1.488064272067526e-05,6.214434667659301e-15
40		2.511886431509577e+00,0.000000000000000e+00
	-1.488064272067526e-01,6.359187446402340e-11
	1.000000000000000e+00,0.000000000000000e+00
	0.000000000000000e+00,0.000000000000000e+00
	1.488064272067526e-05,-6.359187446402340e-15
	3.525920035015693e-25,2.418467152371528e-14
	1.488064263011155e-13,-1.000155529807512e-15
	-1.488064286948169e-05,-1.682532854750542e-14
	-1.488064272067526e-05,6.359187446402340e-15
	-3.525920035015693e-25,-2.418467152371528e-14
	-1.488064272067526e-05,6.359187446402340e-15
41		2.570395782768860e+00,0.000000000000000e+00
	-1.488064272067526e-01,6.507311950503256e-11
	1.000000000000000e+00,0.000000000000000e+00
	0.000000000000000e+00,0.000000000000000e+00
	1.488064272067526e-05,-6.507311950503257e-15
	3.692091526809557e-25,2.474800489082975e-14
	1.488064263011155e-13,-1.023452144842872e-15
	-1.488064286948169e-05,-1.721724079548362e-14
	-1.488064272067526e-05,6.507311950503256e-15
	-3.692091526809557e-25,-2.474800489082975e-14
	-1.488064272067526e-05,6.507311950503256e-15
42		2.630267991895378e+00,0.000000000000000e+00
	-1.488064272067526e-01,6.658886717534789e-11
	1.000000000000000e+00,0.000000000000000e+00
	0.000000000000000e+00,0.000000000000000e+00
	1.488064272067526e-05,-6.658886717534789e-15
	3.866094439739122e-25,2.532445997771591e-14
	1.488064263011155e-13,-1.047291407752418e-15
	-1.488064286948169e-05,-1.761828185242870e-14
	-1.488064272067526e-05,6.658886717534789e-15
	-3.866094439739122e-25,-2.532445997771591e-14
	-1.488064272067526e-05,6.658886717534789e-15
43		2.691534803926912e+00,0.000000000000000e+00
	-1.488064272067526e-01,6.813992114444743e-11
	1.000000000000000e+00,0.000000000000000e+00
	0.000000000000000e+00,0.000000000000000e+00
	1.488064272067526e-05,-6.813992114444743e-15
	4.048297857311683e-25,2.591434242849111e-14
	1.488064263011155e-13,-1.071685958428893e-15
	-1.488064286948169e-05,-1.802866435561748e-14
	-1.488064272067526e-05,6.813992114444743e-15
	-4.048297857311683e-25,-2.591434242849111e-14
	-1.488064272067526e-05,6.813992114444743e-15
44		2.754228703338163e+00,0.000000000000000e+00
	-1.488064272067526e-01,6.972710380167623e-11
	1.000000000000000e+00,0.000000000000000e+00
	0.000000000000000e+00,0.000000000000000e+00
	1.488064272067526e-05,-6.972710380167623e-15
	4.239088257404348e-25,2.651796500663878e-14
	1.488064263011155e-13,-1.096648731185978e-15
	-1.488064286948169e-05,-1.844860589528518e-14
	-1.488064272067526e-05,6.972710380167624e-15
	-4.239088257404348e-25,-2.651796500663878e-14
	-1.488064272067526e-05,6.972710380167624e-15
45		2.818382931264450e+00,0.000000000000000e+00
	-1.488064272067526e-01,7.135125669228801e-11
	1.000000000000000e+00,0.000000000000000e+00
	0.000000000000000e+00,0.000000000000000e+00
	1.488064272067526e-05,-7.135125669228802e-15
	4.438870332035433e-25,2.713564776083972e-14
	1.488064263011155e-13,-1.122192961616184e-15
	-1.488064286948169e-05,-1.887832912999473e-14
	-1.488064272067526e-05,7.135125669228802e-15
	-4.438870332035433e-25,-2.713564776083972e-14
	-1.488064272067526e-05,7.135125669228802e-15
46		2.884031503126602e+00,0.000000000000000e+00
	-1.488064272067526e-01,7.301324096364358e-11
	1.000000000000000e+00,0.000000000000000e+00
	0.000000000000000e+00,0.000000000000000e+00
	1.488064272067526e-05,-7.301324096364359e-15
	4.648067845770477e-25,2.776771819466622e-14
	1.488064263011155e-13,-1.148332193608632e-15
	-1.488064286948169e-05,-1.931806190469323e-14
	-1.488064272067526e-05,7.301324096364359e-15
	-4.648067845770477e-25,-2.776771819466622e-14
	-1.488064272067526e-05,7.301324096364359e-15
47		2.951209226666381e+00,0.000000000000000e+00
	-1.488064272067526e-01,7.471393782180258e-11
	1.000000000000000e+00,0.000000000000000e+00
	0.000000000000000e+00,0.000000000000000e+00
	1.488064272067526e-05,-7.471393782180259e-15
	4.867124534583713e-25,2.841451144022874e-14
	1.488064263011155e-13,-1.175080286530094e-15
	-1.488064286948169e-05,-1.976803737151838e-14
	-1.488064272067526e-05,7.471393782180259e-15
	-4.867124534583713e-25,-2.841451144022874e-14
	-1.488064272067526e-05,7.471393782180259e-15
48		3.019951720402012e+00,0.000000000000000e+00
	-1.488064272067526e-01,7.645424899875058e-11
	1.000000000000000e+00,0.000000000000000e+00
	0.000000000000000e+00,0.000000000000000e+00
	1.488064272067526e-05,-7.645424899875058e-15
	5.096505047081554e-25,2.907637043586739e-14
	1.488064263011155e-13,-1.202451422573511e-15
	-1.488064286948169e-05,-2.022849411341882e-14
	-1.488064272067526e-05,7.645424899875058e-15
	-5.096505047081554e-25,-2.907637043586739e-14
	-1.488064272067526e-05,7.645424899875058e-15
49		3.090295432513586e+00,0.000000000000000e+00
	-1.488064272067526e-01,7.823509723050930e-11
	1.000000000000000e+00,0.000000000000000e+00
	0.000000000000000e+00,0.000000000000000e+00
	1.488064272067526e-05,-7.823509723050931e-15
	5.336695930084585e-25,2.975364610798239e-14
	1.488064263011155e-13,-1.230460114277498e-15
	-1.488064286948169e-05,-2.069967627065396e-14
	-1.488064272067526e-05,7.823509723050930e-15
	-5.336695930084585e-25,-2.975364610798239e-14
	-1.488064272067526e-05,7.823509723050930e-15
50		3.162277660168374e+00,0.000000000000000e+00
	-1.488064272067526e-01,8.005742674638362e-11
	1.000000000000000e+00,0.000000000000000e+00
	0.000000000000000e+00,0.000000000000000e+00
	1.488064272067526e-05,-8.005742674638362e-15
	5.588206660658619e-25,3.044669755709991e-14
	1.488064263011155e-13,-1.259121212221135e-15
	-1.488064286948169e-05,-2.118183367024042e-14
	-1.488064272067526e-05,8.005742674638362e-15
	-5.588206660658619e-25,-3.044669755709991e-14
	-1.488064272067526e-05,8.005742674638362e-15
51		3.235936569296277e+00,0.000000000000000e+00
	-1.488064272067526e-01,8.192220376960416e-11
	1.000000000000000e+00,0.000000000000000e+00
	0.000000000000000e+00,0.000000000000000e+00
	1.488064272067526e-05,-8.192220376960415e-15
	5.851570726783824e-25,3.115589224827189e-14
	1.488064263011155e-13,-1.288449912897936e-15
	-1.488064286948169e-05,-2.167522195841354e-14
	-1.488064272067526e-05,8.192220376960417e-15
	-5.851570726783824e-25,-3.115589224827189e-14
	-1.488064272067526e-05,8.192220376960417e-15
52		3.311311214825905e+00,0.000000000000000e+00
	-1.488064272067526e-01,8.383041702963192e-11
	1.000000000000000e+00,0.000000000000000e+00
	0.000000000000000e+00,0.000000000000000e+00
	1.488064272067526e-05,-8.383041702963193e-15
	6.127346758954293e-25,3.188160620591090e-14
	1.488064263011155e-13,-1.318461766773206e-15
	-1.488064286948169e-05,-2.218010273617450e-14
	-1.488064272067526e-05,8.383041702963193e-15
	-6.127346758954293e-25,-3.188160620591090e-14
	-1.488064272067526e-05,8.383041702963193e-15
53		3.388441561392020e+00,0.000000000000000e+00
	-1.488064272067526e-01,8.578307828639554e-11
	1.000000000000000e+00,0.000000000000000e+00
	0.000000000000000e+00,0.000000000000000e+00
	1.488064272067526e-05,-8.578307828639554e-15
	6.416119715108194e-25,3.262422421316322e-14
	1.488064263011155e-13,-1.349172686529125e-15
	-1.488064286948169e-05,-2.269674369799455e-14
	-1.488064272067526e-05,8.578307828639554e-15
	-6.416119715108194e-25,-3.262422421316322e-14
	-1.488064272067526e-05,8.578307828639554e-15
54		3.467368504525310e+00,0.000000000000000e+00
	-1.488064272067526e-01,8.778122286673985e-11
	1.000000000000000e+00,0.000000000000000e+00
	0.000000000000000e+00,0.000000000000000e+00
	1.488064272067526e-05,-8.778122286673986e-15
	6.718502121401991e-25,3.338414001592602e-14
	1.488064263011155e-13,-1.380598955501851e-15
	-1.488064286948169e-05,-2.322541877375018e-14
	-1.488064272067526e-05,8.778122286673986e-15
	-6.718502121401991e-25,-3.338414001592602e-14
	-1.488064272067526e-05,8.778122286673986e-15
55		3.548133892335748e+00,0.000000000000000e+00
	-1.488064272067526e-01,8.982591021336999e-11
	1.000000000000000e+00,0.000000000000000e+00
	0.000000000000000e+00,0.000000000000000e+00
	1.488064272067526e-05,-8.982591021337000e-15
	7.035135371460556e-25,3.416175653161660e-14
	1.488064263011155e-13,-1.412757236315173e-15
	-1.488064286948169e-05,-2.376640827396443e-14
	-1.488064272067526e-05,8.982591021337000e-15
	-7.035135371460556e-25,-3.416175653161660e-14
	-1.488064272067526e-05,8.982591021337000e-15
56		3.630780547701007e+00,0.000000000000000e+00
	-1.488064272067526e-01,9.191822444658173e-11
	1.000000000000000e+00,0.000000000000000e+00
	0.000000000000000e+00,0.000000000000000e+00
	1.488064272067526e-05,-9.191822444658173e-15
	7.366691086859018e-25,3.495748606280455e-14
	1.488064263011155e-13,-1.445664579715244e-15
	-1.488064286948169e-05,-2.431999903843113e-14
	-1.488064272067526e-05,9.191822444658173e-15
	-7.366691086859018e-25,-3.495748606280455e-14
	-1.488064272067526e-05,9.191822444658173e-15
57		3.715352290971718e+00,0.000000000000000e+00
	-1.488064272067526e-01,9.405927493907658e-11
	1.000000000000000e+00,0.000000000000000e+00
	0.000000000000000e+00,0.000000000000000e+00
	1.488064272067526e-05,-9.405927493907658e-15
	7.713872541722186e-25,3.577175051582002e-14
	1.488064263011155e-13,-1.479338433611110e-15
	-1.488064286948169e-05,-2.488648458830126e-14
	-1.488064272067526e-05,9.405927493907659e-15
	-7.713872541722186e-25,-3.577175051582002e-14
	-1.488064272067526e-05,9.405927493907659e-15